# ODT 1.0
# Table Start
# Title: mmArchive Data Table, Sun Jul 16 12:53:05 CEST 2023
# Columns: {Anv_SpinTEvolve_3d:evolver:Total energy} {Anv_SpinTEvolve_3d:evolver:Energy calc count} {Anv_SpinTEvolve_3d:evolver:Max dm/dt} Anv_SpinTEvolve_3d:evolver:dE/dt {Anv_SpinTEvolve_3d:evolver:Delta E} {Anv_SpinTEvolve_3d:evolver:average u} {Anv_SpinTEvolve_3d:evolver:average ux} {Anv_SpinTEvolve_3d:evolver:average uy} {Anv_SpinTEvolve_3d:evolver:average uz} Oxs_UniformExchange:exchange:Energy {Oxs_UniformExchange:exchange:Max Spin Ang} {Oxs_UniformExchange:exchange:Stage Max Spin Ang} {Oxs_UniformExchange:exchange:Run Max Spin Ang} Oxs_Demag:demag:Energy Oxs_DMI_T:dmi:Energy Oxs_TimeDriver::Iteration {Oxs_TimeDriver::Stage iteration} Oxs_TimeDriver::Stage Oxs_TimeDriver::mx   Oxs_TimeDriver::my   Oxs_TimeDriver::mz   {Oxs_TimeDriver::Last time step} {Oxs_TimeDriver::Simulation time}
# Units:                       J                                           {}                                       deg/ns                               J/s                                 J                                    m/s                                     m/s                                     m/s                                     m/s                                    J                                      deg                                            deg                                              deg                                 J                     J                      {}                            {}                          {}                   {}                   {}                   {}                          s                                 s                
                     -2.89850856702e-16                            313                                        9913.7179302099994                  5.5292541757299997e-08                3.2024019940699999e-21                   302.76216455399998                     302.76216449200001                     -0.0060100201414099996                    -0.0010006496914699999                   3.70308800755e-16                       129.30650621800001                             129.30650621800001                               129.30650621800001                  2.47632387797e-17    -6.8492289623700003e-16    48                            48                          0                    -0.016804061466300001  0.105043368599       0.0199499323992            5.8120210008000005e-14              9.9999999999999994e-12       
                     -2.89287544827e-16                            608                                        10034.8209527                       5.3702599195200002e-08                5.87550112084e-21                     302.76216455399998                     302.76216449200001                     -0.0060100201414099996                    -0.0010006496914699999                   3.7051406367399999e-16                     120.806324661                                  136.34623090900001                               136.34623090900001                  2.5047505828599999e-17  -6.8484911432899998e-16    95                            46                          1                    -0.016998761619000002  0.101004435772       0.019866186538599999        1.12388050744e-13                1.9999999999999999e-11       
                     -2.8872490906299998e-16                          903                                        13102.6086772                       5.2001612431299998e-08                6.9812222678299999e-21                   302.76216455399998                     302.76216449200001                     -0.0060100201414099996                    -0.0010006496914699999                   3.7076832276400001e-16                     151.497992036                                  151.497992036                                    151.497992036                       2.5332130961600001e-17  -6.8482536278799998e-16    142                           46                          2                    -0.017210455081200001  0.096617726664200002  0.0199812207689            1.3880876467399999e-13              3e-11                     
                     -2.8816099000099998e-16                          1198                                       11514.3434261                       5.5072869809900003e-08                7.3885648926400005e-21                   302.76216455399998                     302.76216449200001                     -0.0060100201414099996                    -0.0010006496914699999                   3.7102636046800002e-16                     160.18277066900001                             166.31345484799999                               166.31345484799999                  2.56455583422e-17    -6.8483290881100005e-16    189                           46                          3                    -0.017646522111700001  0.092323051315900004  0.020266475738999999        1.4190463192500001e-13              3.9999999999999998e-11       
                     -2.87576489725e-16                            1493                                       12529.676814599999                  5.2197303085099999e-08                7.8911180100299996e-21                   302.76216455399998                     302.76216449200001                     -0.0060100201414099996                    -0.0010006496914699999                   3.7135753078500001e-16                     136.604275935                                  176.57517441300001                               176.57517441300001                  2.59818252295e-17    -6.8491584573900002e-16    236                           46                          4                    -0.018337138593299999  0.088352993258400001  0.020519885409400002        1.59113408251e-13                5.0000000000000002e-11       
                     -2.8697978101800002e-16                          1788                                       13305.040361699999                  4.5874126254e-08                   5.3030181855399997e-21                   302.76216455399998                     302.76216449200001                     -0.0060100201414099996                    -0.0010006496914699999                   3.7173369706099999e-16                     136.42882258                                   170.010299073                                    176.57517441300001                  2.6327507411900002e-17  -6.8504098549100005e-16    283                           46                          5                    -0.019235296659599999  0.084716641164599996  0.0206031630643            1.37168277302e-13                6e-11                     
                     -2.8638786792299998e-16                          2083                                       12341.6289621                       4.9673930850700001e-08                8.1125678231200004e-21                   302.76216455399998                     302.76216449200001                     -0.0060100201414099996                    -0.0010006496914699999                   3.7208904124300002e-16                     132.606043505                                  138.977592622                                    176.57517441300001                  2.66811424493e-17    -6.8515805161499996e-16    330                           46                          6                    -0.020166386735499999  0.081364235808499996  0.020530773869099999        1.6936292491399999e-13              7.0000000000000004e-11       
                     -2.8579714300500001e-16                          2378                                       12924.055617100001                  4.8669047244300001e-08                7.6908794501800006e-21                   302.76216455399998                     302.76216449200001                     -0.0060100201414099996                    -0.0010006496914699999                   3.7241978614499998e-16                     134.942258909                                  144.92793904300001                               176.57517441300001                  2.7038014355000001e-17  -6.8525494350600004e-16    377                           46                          7                    -0.020963240410999999  0.078291774563400002  0.020398155670000001        1.66238021074e-13                7.9999999999999995e-11       
                     -2.85211838026e-16                            2667                                       13682.6233189                       4.6367044758899998e-08                6.6234876464000003e-21                   302.76216455399998                     302.76216449200001                     -0.0060100201414099996                    -0.0010006496914699999                   3.7273670462200001e-16                     161.937437225                                  178.31428312200001                               178.31428312200001                  2.7389171989800001e-17  -6.8533771463800004e-16    424                           46                          8                    -0.021559935230999999  0.075514600153400002  0.020289984758799999        1.5849278299600001e-13              8.9999999999999999e-11       
                     -2.8464911290800001e-16                          2962                                       14746.389438800001                  4.41569318965e-08                  7.2509699054800005e-21                   302.76216455399998                     302.76216449200001                     -0.0060100201414099996                    -0.0010006496914699999                   3.73021412939e-16                       170.82312216599999                             170.82312216599999                               178.31428312200001                  2.7725864726100001e-17  -6.8539639057299998e-16    471                           46                          9                    -0.022008388438000001  0.072976535123099998  0.020260034450299998        1.7076893764299999e-13              1e-10                     
                     -2.84107268193e-16                            3251                                       14550.4032085                       3.8145739472399998e-08                5.4563911692199997e-21                   302.76216455399998                     302.76216449200001                     -0.0060100201414099996                    -0.0010006496914699999                   3.7331633940800001e-16                     122.049831029                                  170.82312216599999                               178.31428312200001                  2.8043017660500001e-17  -6.8546662526100004e-16    518                           46                          10                   -0.022284792371900002  0.0705320982747      0.020337837683200001        1.6107884392499999e-13              1.0999999999999999e-10       
                     -2.8359321289599999e-16                          3534                                       13554.6742122                       3.7900954385000001e-08                6.1139267415100002e-21                   302.76216455399998                     302.76216449200001                     -0.0060100201414099996                    -0.0010006496914699999                   3.7362935760699999e-16                     125.76001843                                   151.170371227                                    178.31428312200001                  2.8337132732999997e-17  -6.8555970323600002e-16    565                           46                          11                   -0.022308334574599999  0.0680908819167      0.020494034582200001        1.6960908037100001e-13              1.2e-10                   
                     -2.8311289375400002e-16                          3817                                       14850.9957098                       3.4556741482399997e-08                4.8682881299200002e-21                   302.76216455399998                     302.76216449200001                     -0.0060100201414099996                    -0.0010006496914699999                   3.7396500794600002e-16                     142.566595842                                  178.074181673                                    178.31428312200001                  2.8606498420000002e-17  -6.8568440011999997e-16    612                           46                          12                   -0.022061833992800001  0.065597386317800002  0.020631189819300001        1.5920310519e-13                 1.2999999999999999e-10       
                     -2.8267037869500002e-16                          4100                                       15956.474057699999                  2.7629427851900001e-08                3.1862141233499998e-21                   302.76216455399998                     302.76216449200001                     -0.0060100201414099996                    -0.0010006496914699999                   3.7428981567100001e-16                     127.11097511200001                             155.254696051                                    178.31428312200001                  2.8854505382699998e-17  -6.8581469974899998e-16    659                           46                          13                   -0.0215342860796      0.062992860621200006  0.020644920605500001        1.52346853853e-13                1.4000000000000001e-10       
                     -2.8225428418200002e-16                          4383                                       16208.260986699999                  2.9163374112599999e-08                5.2619186056099996e-21                   302.76216455399998                     302.76216449200001                     -0.0060100201414099996                    -0.0010006496914699999                   3.7461149966500002e-16                     142.47316102100001                             142.73257898                                     178.31428312200001                  2.9085142455099998e-17  -6.85950926302e-16      706                           46                          14                   -0.020712437600500001  0.060236394150600003  0.020494638208100002        1.77068260149e-13                1.5e-10                   
                     -2.8187861455800001e-16                          4666                                       12948.971180299999                  2.5643897571799998e-08                3.8622919003399998e-21                   302.76216455399998                     302.76216449200001                     -0.0060100201414099996                    -0.0010006496914699999                   3.7490529185800002e-16                     111.20843349800001                             142.47316102100001                               178.31428312200001                  2.92942354289e-17    -6.8607814184399997e-16    753                           46                          15                   -0.019567487783       0.057279017820599999  0.0202033389477            1.6706173250299999e-13              1.5999999999999999e-10       
                     -2.8152674028000002e-16                          4949                                       16612.5914453                       2.38242613682e-08                  3.5644631248599999e-21                   302.76216455399998                     302.76216449200001                     -0.0060100201414099996                    -0.0010006496914699999                   3.7523178003400001e-16                     122.816565586                                  132.42618247999999                               178.31428312200001                  2.9476769949800001e-17  -6.8623529026299996e-16    800                           46                          16                   -0.0181453167327      0.054056898404999998  0.019812040393699999        1.64869462674e-13                1.7000000000000001e-10       
                     -2.8120979586399998e-16                          5232                                       15192.2915178                       2.5129080307e-08                   4.4940499852899997e-21                   302.76216455399998                     302.76216449200001                     -0.0060100201414099996                    -0.0010006496914699999                   3.7556841827899999e-16                     124.400422314                                  127.82057487100001                               178.31428312200001                  2.9626724799499998e-17  -6.8640493894300002e-16    847                           46                          17                   -0.016556979091400002  0.050511078328499999  0.019355080293199999        1.77492013085e-13                1.8e-10                   
                     -2.80920285607e-16                            5515                                       17442.341987899999                  1.64505786421e-08                  1.92906907391e-21                     302.76216455399998                     302.76216449200001                     -0.0060100201414099996                    -0.0010006496914699999                   3.7593467945699999e-16                     158.35121769                                   158.35121769                                     178.31428312200001                  2.9742266091599999e-17  -6.8659723115599999e-16    894                           46                          18                   -0.014922666768500001  0.046626464366500003  0.018854328714200001        1.55396648501e-13                1.8999999999999999e-10       
                     -2.80664272787e-16                            5804                                       19632.232980100001                  1.05239386535e-08                  8.6060624478600001e-22                   302.76216455399998                     302.76216449200001                     -0.0060100201414099996                    -0.0010006496914699999                   3.7630719789500002e-16                     142.80769333000001                             168.15179035400001                               178.31428312200001                  2.9823108904e-17     -6.8679457958600001e-16    941                           46                          19                   -0.013341740761899999  0.042420558822799999  0.018328565231200002        1.5692303640499999e-13              2.0000000000000001e-10       
                     -2.80441192298e-16                            6087                                       16281.7288809                       1.31472995861e-08                  2.56346421069e-21                     302.76216455399998                     302.76216449200001                     -0.0060100201414099996                    -0.0010006496914699999                   3.7668125846099998e-16                     150.357174859                                  172.70596504599999                               178.31428312200001                  2.9870352466799997e-17  -6.8699280322599997e-16    988                           46                          20                   -0.011856138353300001  0.037951519887399997  0.017802896360000001        1.80642338033e-13                2.1e-10                   
                     -2.8024842543200001e-16                          6370                                       18640.706782099998                  3.65935344055e-09                 -9.6768514976399995e-23                   302.76216455399998                     302.76216449200001                     -0.0060100201414099996                    -0.0010006496914699999                   3.7705036669299999e-16                     131.423676567                                  175.60674315                                     178.31428312200001                  2.9887579377700001e-17  -6.8718637150300001e-16    1035                          46                          21                   -0.0105240512431      0.033292300381300002  0.017300011307800001        1.6038405887400001e-13              2.1999999999999999e-10       
                     -2.8009274627199998e-16                          6653                                       17922.569480900002                  2.1990359266100002e-09                3.6492072818500001e-22                   302.76216455399998                     302.76216449200001                     -0.0060100201414099996                    -0.0010006496914699999                   3.7738151326499999e-16                     151.84881118199999                             166.00487837099999                               178.31428312200001                  2.9884559023600002e-17  -6.8735881856e-16       1082                          46                          22                   -0.0093976984968900008  0.028495262898300001  0.016804870741             1.75185946527e-13                2.3000000000000001e-10       
                     -2.7998971855999998e-16                          6936                                       15788.649747199999                 -2.2367704804499999e-09               -5.6940385107500003e-22                   302.76216455399998                     302.76216449200001                     -0.0060100201414099996                    -0.0010006496914699999                   3.7765679871399998e-16                     123.123938747                                  177.889896091                                    178.31428312200001                  2.9856209196200002e-17  -6.8750272647000003e-16    1129                          46                          23                   -0.0085018186202500002  0.0235806103069      0.016263317147200002        1.73086225328e-13                2.4e-10                   
                     -2.7994475768200002e-16                          7219                                       17751.6901984                      -6.5515220060699998e-09               -1.31799335147e-21                     302.76216455399998                     302.76216449200001                     -0.0060100201414099996                    -0.0010006496914699999                   3.7790082360099999e-16                     153.87001057000001                             172.358795276                                    178.31428312200001                  2.9781908061899998e-17  -6.8762748934499997e-16    1176                          46                          24                   -0.0077763264493599998  0.018574974377600001  0.0156521688223            1.6922571471899999e-13              2.5000000000000002e-10       
# Table End
