# ODT 1.0
# Table Start
# Title: mmArchive Data Table, Thu May 11 14:31:21 CEST 2023
# Columns: {Anv_SpinTEvolve:evolver:Total energy} {Anv_SpinTEvolve:evolver:Energy calc count} {Anv_SpinTEvolve:evolver:Max dm/dt} Anv_SpinTEvolve:evolver:dE/dt {Anv_SpinTEvolve:evolver:Delta E} {Anv_SpinTEvolve:evolver:average u} Oxs_UniformExchange:exchange:Energy {Oxs_UniformExchange:exchange:Max Spin Ang} {Oxs_UniformExchange:exchange:Stage Max Spin Ang} {Oxs_UniformExchange:exchange:Run Max Spin Ang} Oxs_Demag:demag:Energy Oxs_DMI_T:dmi:Energy Oxs_TimeDriver::Iteration {Oxs_TimeDriver::Stage iteration} Oxs_TimeDriver::Stage Oxs_TimeDriver::mx   Oxs_TimeDriver::my   Oxs_TimeDriver::mz   {Oxs_TimeDriver::Last time step} {Oxs_TimeDriver::Simulation time}
# Units:                     J                                        {}                                    deg/ns                             J/s                              J                                 m/s                                  J                                      deg                                            deg                                              deg                                 J                     J                      {}                            {}                          {}                   {}                   {}                   {}                          s                                 s                
                    -2.8143188260100001e-16                      289                                     918.55427368400001               2.45989624301e-10               1.53867823446e-23                  37.728437927800002                  3.5257116670099998e-16                     109.935652909                                  109.935652909                                    109.935652909                       2.69404798922e-17    -6.6094352919400001e-16    45                            45                          0                     0.026638528896300001  0.29351704477700002  0.038723597024299998        6.3129282913799996e-14              9.9999999999999994e-12       
                    -2.8142981560399998e-16                      590                                     1455.3170740800001               6.1651570148099997e-11             2.61413990899e-24                  37.728437927800002                  3.5257467827700001e-16                     115.04574453399999                             115.04574453399999                               115.04574453399999                  2.6940505043099999e-17  -6.6094499892399997e-16    92                            46                          1                     0.026629380254099999  0.29300745340000001  0.038718559756300001        7.6819434778299997e-14              1.9999999999999999e-11       
                    -2.8142932467200001e-16                      885                                     1815.69237619                   -1.2781104424999999e-10            -2.59587900671e-23                  37.728437927800002                  3.5257313066100002e-16                     110.863385847                                  115.381962464                                    115.381962464                       2.69405136547e-17    -6.6094296898800003e-16    139                           46                          2                     0.026631097002599999  0.29244637127400003  0.038713511011300002        1.2760326109200001e-13              3e-11                     
                    -2.8142878353999999e-16                      1180                                    1008.05434703                    7.2917449748999998e-11             1.32290157489e-23                  37.728437927800002                  3.5256940951000002e-16                     100.059486595                                  110.863385847                                    115.381962464                       2.6941009643600002e-17  -6.6093920269400002e-16    186                           46                          3                     0.026635913408900001  0.29186144391300001  0.038710110571499999        1.7857683491999999e-13              3.9999999999999998e-11       
                    -2.81426871484e-16                        1469                                    1153.44075305                    1.6873813594699999e-10             1.8613384383599999e-23                37.728437927800002                  3.5256869911299998e-16                     109.317873342                                  109.317873342                                    115.381962464                       2.69418490604e-17    -6.6093741965700004e-16    233                           46                          4                     0.0266418558021      0.291290011131       0.0387078456067            1.4074619290799999e-13              5.0000000000000002e-11       
                    -2.8142465169499998e-16                      1764                                    1872.9985092500001               8.0654776558599997e-11             3.19203585474e-24                  37.728437927800002                  3.5256891653299998e-16                     114.462557684                                  114.462557684                                    115.381962464                       2.69427823642e-17    -6.6093635059199999e-16    280                           46                          5                     0.026641320485800001  0.290754526294       0.038705847798900003        1.3059783758600001e-13              6e-11                     
                    -2.81423795918e-16                        2065                                    1776.3933050099999              -4.2469214089999999e-11            -1.4058216152900001e-23                37.728437927800002                  3.52564906087e-16                       106.081934804                                  114.48951367799999                               115.381962464                       2.6943741210600001e-17  -6.6093244321599996e-16    327                           46                          6                     0.0266407238123      0.29023994445500001  0.038704068999899997        1.46971626519e-13                7.0000000000000004e-11       
                    -2.8142257736799998e-16                      2360                                    1125.5061042                     1.2432811255800001e-10             2.12310390717e-23                  37.728437927800002                  3.52560868972e-16                       102.784199528                                  106.081934804                                    115.381962464                       2.6945101982099999e-17  -6.6092854832100002e-16    374                           46                          7                     0.0266587675794      0.28972366996799997  0.038702274874700002        1.7522408472500001e-13              7.9999999999999995e-11       
                    -2.81420511057e-16                        2649                                    1478.826971                      1.2007842560899999e-10             9.0298626016299996e-24                37.728437927800002                  3.5255995537699999e-16                     110.619656629                                  110.619656629                                    115.381962464                       2.6946406944899999e-17  -6.6092687337799996e-16    421                           46                          8                     0.026694534334699999  0.28923452901300001  0.038699423196399997        1.32935448615e-13                8.9999999999999999e-11       
                    -2.8141920304999998e-16                      2944                                    2338.0465543999999              -1.0349782982499999e-10            -2.3963692874399999e-23                37.728437927800002                  3.5255826701400002e-16                     112.233680619                                  114.048476943                                    115.381962464                       2.6947254961699999e-17  -6.60924725026e-16      468                           46                          9                     0.0267396969066      0.28878493320600002  0.038695323845100001        1.32751673927e-13                1e-10                     
                    -2.8141884245600001e-16                      3245                                    1192.59948055                    4.2088457761200003e-11             1.1527983396399999e-23                37.728437927800002                  3.5255390081199999e-16                     97.820255947999996                             112.233680619                                    115.381962464                       2.6947979147900001e-17  -6.6092072241699997e-16    515                           46                          10                    0.026801109461500001  0.28834223984599999  0.038690889767800003        1.9058713931100001e-13              1.0999999999999999e-10       
                    -2.8141746695899999e-16                      3540                                    1302.8246256299999               9.8551746907500003e-11             9.4392527362299993e-24                37.728437927800002                  3.5255396212800002e-16                     108.878312313                                  108.878312313                                    115.381962464                       2.6948788668900001e-17  -6.6092021775600002e-16    562                           46                          11                    0.026883335386999999  0.28790761127699999  0.038686040401400001        1.4336118668499999e-13              1.2e-10                   
                    -2.8141631405699998e-16                      3829                                    2245.5751749000001              -1.7321314875899999e-10            -3.3286520695399998e-23                37.728437927800002                  3.5255552158399998e-16                     115.523308552                                  115.56706988800001                               115.56706988800001                  2.69490551728e-17    -6.6092089081299999e-16    609                           46                          12                    0.026966233646199999  0.28750696211400001  0.0386810565248            1.1588077052700001e-13              1.2999999999999999e-10       
                    -2.8141682461700002e-16                      4124                                    1517.8044054500001              -1.06180567455e-10              -1.5788777958000001e-23                37.728437927800002                  3.5255326504899998e-16                     102.72499892                                   115.523308552                                    115.56706988800001                  2.6948820308800001e-17  -6.6091890997500001e-16    656                           46                          13                    0.027044914050799999  0.28712226458000001  0.038677258420999998        1.89356925273e-13                1.4000000000000001e-10       
                    -2.8141657327799999e-16                      4419                                    1240.77317836                    2.8993717941600001e-11             4.76250632935e-24                  37.728437927800002                  3.5255407906499998e-16                     106.513366956                                  106.513366956                                    115.56706988800001                  2.6948797222599999e-17  -6.6091944956599999e-16    703                           46                          14                    0.027132022417599998  0.28673586738099999  0.038675027361000001        1.7513447897299999e-13              1.5e-10                   
                    -2.81416070992e-16                        4714                                    1999.8549805600001              -8.6923045473899995e-11            -1.73895064061e-23                  37.728437927800002                  3.5255754127600002e-16                     115.42930293800001                             115.42930293800001                               115.56706988800001                  2.69484541109e-17    -6.6092206637999996e-16    750                           46                          15                    0.027214266897099999  0.28637315977        0.038674039846999998        1.29055980281e-13                1.5999999999999999e-10       
                    -2.8141723238500001e-16                      5009                                    1890.5060355600001              -2.31542928921e-10              -4.0665711523399999e-23                37.728437927800002                  3.5255715165800002e-16                     106.572094612                                  115.82804185000001                               115.82804185000001                  2.69475695266e-17    -6.6092195357000003e-16    797                           46                          16                    0.027281579454400001  0.286028300721       0.038674888167499998        1.4999291868000001e-13              1.7000000000000001e-10       
                    -2.8141808300000001e-16                      5304                                    1240.26693793                   -6.4404973120500001e-11            -1.0636628620200001e-23                37.728437927800002                  3.5255737025500001e-16                     104.201814548                                  106.572094612                                    115.82804185000001                  2.6946961499099999e-17  -6.6092241475499998e-16    844                           46                          17                    0.0273482440457      0.28567480139599999  0.038677902699899999        1.8429283432399999e-13              1.8e-10                   
                    -2.8141825889e-16                         5581                                    1819.5265574                    -1.86099992797e-10              -2.7367733007699999e-23                37.728437927800002                  3.5256092519600002e-16                     114.106348861                                  114.106348861                                    115.82804185000001                  2.6946318015599999e-17  -6.6092550210099997e-16    891                           46                          18                    0.027409805320300001  0.28533393939099999  0.038682116325600001        1.04799163805e-13                1.8999999999999999e-10       
                    -2.8141981385100001e-16                      5864                                    2176.6548561999998              -4.2367591364599998e-10            -7.1068950569299997e-23                37.728437927800002                  3.5256131755499999e-16                     109.02515631999999                             115.470389748                                    115.82804185000001                  2.6945195741100001e-17  -6.6092632714699997e-16    938                           46                          19                    0.027452901512599999  0.28500899189500001  0.038687381283599998        1.31455047477e-13                2.0000000000000001e-10       
                    -2.8142144659000002e-16                      6147                                    1250.0271154899999              -1.59162080007e-10              -2.7512663046799999e-23                37.728437927800002                  3.5256057855799998e-16                     102.25887055299999                             109.02515631999999                               115.82804185000001                  2.6944299034799999e-17  -6.6092632418299998e-16    985                           46                          20                    0.027489850319       0.284671301185       0.038694033513700002        1.8162219115e-13                 2.1e-10                   
                    -2.8142207525999999e-16                      6430                                    1688.7027462000001              -1.7115951846699999e-10            -3.0073832574100002e-23                37.728437927800002                  3.52563655229e-16                       112.64773331000001                             112.64773331000001                               115.82804185000001                  2.6943570167200001e-17  -6.6092930065700005e-16    1032                          46                          21                    0.0275230882054      0.28433711192        0.038701080552             1.2915404600800001e-13              2.1999999999999999e-10       
                    -2.8142371342500002e-16                      6713                                    2358.4996907300001              -4.9356958655699999e-10            -7.4774657502900006e-23                37.728437927800002                  3.5256440326800002e-16                     110.669346244                                  115.01104943599999                               115.82804185000001                  2.6942446986799999e-17  -6.6093056367900002e-16    1079                          46                          22                    0.027537804744399999  0.284015800777       0.038708156501700001        1.1831252332999999e-13              2.3000000000000001e-10       
                    -2.8142573617100002e-16                      6996                                    1257.10650807                   -1.96549578898e-10              -3.3053255157299999e-23                37.728437927800002                  3.5256278179299998e-16                     100.620283419                                  110.669346244                                    115.82804185000001                  2.69414763006e-17    -6.6092999426500003e-16    1126                          46                          23                    0.027544016442499999  0.28367901284800001  0.038715686499599999        1.8738179673399999e-13              2.4e-10                   
                    -2.8142652078300002e-16                      7279                                    1588.4138408900001              -1.5531576968900001e-10            -2.8222401280200001e-23                37.728437927800002                  3.5256519638600002e-16                     111.317305147                                  111.317305147                                    115.82804185000001                  2.69408198949e-17    -6.6093253706500002e-16    1173                          46                          24                    0.027549724913799999  0.28333821531199999  0.038722780734799997        1.3590903845400001e-13              2.5000000000000002e-10       
                    -2.8142796049900002e-16                      7562                                    2457.0444494899998              -5.0433852291399999e-10            -7.2802572590199995e-23                37.728437927800002                  3.52566096081e-16                       112.065579709                                  114.718300845                                    115.82804185000001                  2.6939859294800001e-17  -6.6093391587399996e-16    1220                          46                          25                    0.027540019260399999  0.28300776195100003  0.038728992803800003        1.12026359999e-13                2.5999999999999998e-10       
                    -2.8143007546499998e-16                      7845                                    1265.3632136700001              -2.08304206168e-10              -3.45057650988e-23                  37.728437927800002                  3.52563587024e-16                       99.098665393600001                             112.065579709                                    115.82804185000001                  2.69389741704e-17    -6.6093263665900002e-16    1267                          46                          26                    0.0275221855324      0.28266100532799998  0.038734879924200001        1.89851506681e-13                2.7e-10                   
                    -2.8143081430700001e-16                      8128                                    1497.7823946399999              -1.2509044865699999e-10            -2.39063100885e-23                  37.728437927800002                  3.5256508716400001e-16                     110.05036887200001                             110.05036887200001                               115.82804185000001                  2.6938508706500001e-17  -6.6093441017700004e-16    1314                          46                          27                    0.027508274662900001  0.28230443558000001  0.038739803287200003        1.4145775476900001e-13              2.8000000000000002e-10       
                    -2.81431861569e-16                        8411                                    2475.9322209400002              -4.6512697322500001e-10            -6.5734470526300001e-23                37.728437927800002                  3.5256595596700001e-16                     113.36615639999999                             114.627518501                                    115.82804185000001                  2.69378142929e-17    -6.6093563182999997e-16    1361                          46                          28                    0.027483429142500002  0.28195725064799998  0.038743405013199998        1.0825399617799999e-13              2.8999999999999998e-10       
                    -2.8143388578699999e-16                      8694                                    1278.43814333                   -2.09345108631e-10              -3.5097815685699998e-23                37.728437927800002                  3.5256257676299998e-16                     97.847523054899995                             113.36615639999999                               115.82804185000001                  2.6937090234600001e-17  -6.6093355278499999e-16    1408                          46                          29                    0.027451159986899999  0.281595879173       0.038746453759200002        1.8752312696e-13                 3e-10                     
                    -2.8143449786300001e-16                      8977                                    1406.0022153699999              -9.0574840382999997e-11            -1.8605334445599999e-23                37.728437927800002                  3.5256296341699998e-16                     108.664787682                                  108.664787682                                    115.82804185000001                  2.6936852180800001e-17  -6.6093431346000002e-16    1455                          46                          30                    0.0274264027706      0.28122027956399998  0.038748633380499997        1.4654216773200001e-13              3.1000000000000002e-10       
                    -2.8143507509299999e-16                      9260                                    2394.7859687300001              -3.8287031935899998e-10            -5.4861980352299996e-23                37.728437927800002                  3.5256372365399999e-16                     114.327674824                                  114.63128753700001                               115.82804185000001                  2.6936450488999999e-17  -6.6093524923499998e-16    1502                          46                          31                    0.027394883903599999  0.28085379186699999  0.0387495984594            1.07200980997e-13                3.1999999999999998e-10       
                    -2.8143689215199999e-16                      9543                                    1421.6230247200001              -2.1377150887400001e-10            -3.7889564973600002e-23                37.728437927800002                  3.5255975842200002e-16                     100.077880806                                  114.327674824                                    115.82804185000001                  2.6935895126e-17     -6.6093254569999997e-16    1549                          46                          32                    0.0273557669654      0.28047770333200001  0.038750122650699999        1.77899915002e-13                3.3e-10                   
                    -2.81437391993e-16                        9826                                    1331.85492303                   -6.0820586786e-11               -1.3710031546099999e-23                37.728437927800002                  3.5255897728299998e-16                     107.07398636800001                             107.07398636800001                               115.82804185000001                  2.6935856199299999e-17  -6.6093222547399996e-16    1596                          46                          33                    0.027325981818799999  0.28008405252000002  0.038750113656500003        1.5325055742199999e-13              3.4000000000000001e-10       
                    -2.8143752868800001e-16                      10109                                   2221.0949813799998              -2.7491688743799998e-10            -4.1951600696399999e-23                37.728437927800002                  3.5255960960300001e-16                     114.64472924099999                             114.64472924099999                               115.82804185000001                  2.6935724277900001e-17  -6.6093286256900004e-16    1643                          46                          34                    0.027293208955700001  0.279699040555       0.038749108587899997        1.09377004441e-13                3.4999999999999998e-10       
                    -2.8143904429900002e-16                      10392                                   1614.9594277900001              -2.3092498951099999e-10            -4.3094172709699999e-23                37.728437927800002                  3.5255556406399998e-16                     102.733936277                                  114.64735263                                     115.82804185000001                  2.69353210824e-17    -6.6092992944499995e-16    1690                          46                          35                    0.0272522711683      0.279310995003       0.038747728751299997        1.63228389054e-13                3.6e-10                   
                    -2.8143950793500002e-16                      10675                                   1272.3239950100001              -4.2582064521399999e-11            -1.01204068697e-23                  37.728437927800002                  3.5255365211900002e-16                     105.284464219                                  105.284464219                                    115.82804185000001                  2.6935412940099999e-17  -6.60928572995e-16      1737                          46                          36                    0.027220681405299998  0.278903903663       0.038746136645500001        1.6138603287600001e-13              3.7000000000000001e-10       
                    -2.8143930877500001e-16                      10958                                   1993.12218925                   -1.6974799199799999e-10            -2.9417042491600003e-23                37.728437927800002                  3.5255414959000002e-16                     114.212918992                                  114.212918992                                    115.82804185000001                  2.6935494165000002e-17  -6.6092895252999995e-16    1784                          46                          37                    0.0271898159484      0.27850447438800002  0.038743783321400001        1.1463593857100001e-13              3.7999999999999998e-10       
                    -2.8144044380100002e-16                      11241                                   1885.71032814                   -2.7186946814299998e-10            -5.0339145483299998e-23                37.728437927800002                  3.5255061877399998e-16                     105.766556397                                  114.656573495                                    115.82804185000001                  2.69352165179e-17    -6.6092627909300003e-16    1831                          46                          38                    0.027150454415000001  0.27810960095699999  0.0387410971853            1.4491698659699999e-13              3.9e-10                   
                    -2.81440980311e-16                        11524                                   1237.2797724300001              -4.08907517985e-11              -8.2983241272800002e-24                37.728437927800002                  3.5254771245699998e-16                     103.32545330799999                             105.766556397                                    115.82804185000001                  2.6935344356199999e-17  -6.6092403712399996e-16    1878                          46                          39                    0.027118645201400001  0.27769651013500002  0.038738536081299998        1.7240858616000001e-13              4.0000000000000001e-10       
                    -2.81440588105e-16                        11807                                   1761.8297207999999              -8.6782425011500002e-11            -1.88963306823e-23                  37.728437927800002                  3.5254810460700002e-16                     113.12588045699999                             113.12588045699999                               115.82804185000001                  2.69355625905e-17    -6.6092425530300002e-16    1925                          46                          40                    0.027091164968000001  0.27728894821        0.038735511288199999        1.22918551951e-13                4.0999999999999998e-10       