# ODT 1.0
# Table Start
# Title: mmArchive Data Table, Sun Jul 16 10:55:50 CEST 2023
# Columns: {Anv_SpinTEvolve_3d:evolver:Total energy} {Anv_SpinTEvolve_3d:evolver:Energy calc count} {Anv_SpinTEvolve_3d:evolver:Max dm/dt} Anv_SpinTEvolve_3d:evolver:dE/dt {Anv_SpinTEvolve_3d:evolver:Delta E} {Anv_SpinTEvolve_3d:evolver:average u} {Anv_SpinTEvolve_3d:evolver:average ux} {Anv_SpinTEvolve_3d:evolver:average uy} {Anv_SpinTEvolve_3d:evolver:average uz} Oxs_UniformExchange:exchange:Energy {Oxs_UniformExchange:exchange:Max Spin Ang} {Oxs_UniformExchange:exchange:Stage Max Spin Ang} {Oxs_UniformExchange:exchange:Run Max Spin Ang} Oxs_Demag:demag:Energy Oxs_DMI_T:dmi:Energy Oxs_TimeDriver::Iteration {Oxs_TimeDriver::Stage iteration} Oxs_TimeDriver::Stage Oxs_TimeDriver::mx   Oxs_TimeDriver::my   Oxs_TimeDriver::mz   {Oxs_TimeDriver::Last time step} {Oxs_TimeDriver::Simulation time}
# Units:                       J                                           {}                                       deg/ns                               J/s                                 J                                    m/s                                     m/s                                     m/s                                     m/s                                    J                                      deg                                            deg                                              deg                                 J                     J                      {}                            {}                          {}                   {}                   {}                   {}                          s                                 s                
                     -2.9020190441799998e-16                          1465                                       1519.4237737599999                  7.3498709154900005e-10                4.9492440822100001e-23                   37.845270569199997                     37.845270561500001                     -0.000751252517677                      -0.00012508121143299999                   3.6963979959399998e-16                     118.770262229                                  129.23825799299999                               129.23825799299999                  2.4603632883299999e-17  -6.8444533689499995e-16    229                           229                         0                    -0.0089337945957900008  0.091436756509000003  0.0203054236512            6.9592678762999994e-14              5.0000000000000002e-11       
                     -2.90158239616e-16                            2930                                       2695.9811562999998                  1.00373709839e-10                 -2.4886855597099999e-23                   37.845270569199997                     37.845270561500001                     -0.000751252517677                      -0.00012508121143299999                   3.69720251981e-16                       135.905110498                                  137.05733823                                     137.05733823                        2.4617642414100002e-17  -6.8449613401100004e-16    459                           229                         1                    -0.00929650219614     0.088801558042400003  0.020544928253             1.1730224465299999e-13              1e-10                     
                     -2.9011575020299999e-16                          4389                                       1888.02435917                      -5.30972280642e-11                  9.2855798342400005e-23                   37.845270569199997                     37.845270561500001                     -0.000751252517677                      -0.00012508121143299999                   3.69778540021e-16                       118.819033459                                  145.47847448600001                               145.47847448600001                  2.46382784085e-17    -6.8453256863200005e-16    689                           229                         2                    -0.0091534851449499993  0.086942634034500005  0.020680243153299999        2.00181157958e-13                1.5e-10                   
                     -2.9007448684400001e-16                          5764                                       1706.6373390399999                  3.5921838537699999e-10                8.2748016794000006e-23                   37.845270569199997                     37.845270561500001                     -0.000751252517677                      -0.00012508121143299999                   3.6984951882100002e-16                     149.62096646000001                             158.760520023                                    158.760520023                       2.4662414853000001e-17  -6.8458642051899997e-16    919                           229                         3                    -0.0091999600655600002  0.085774611437499995  0.020682156695900001        1.8474201511399999e-13              2.0000000000000001e-10       
                     -2.9003913065899999e-16                          7145                                       1699.4362815699999                  3.5069630164699999e-10                5.7286147875700003e-23                   37.845270569199997                     37.845270561500001                     -0.000751252517677                      -0.00012508121143299999                   3.6989384696100002e-16                     123.33075769600001                             159.296743725                                    159.296743725                       2.46840899127e-17    -6.8461706753300003e-16    1149                          229                         4                    -0.0103889681978      0.085210009956499994  0.020631671382700001        1.74016560238e-13                2.5000000000000002e-10       
                     -2.8999765740099998e-16                          8526                                       1285.0237050799999                  7.6562925756499998e-10                1.5974695657500001e-22                   37.845270569199997                     37.845270561500001                     -0.000751252517677                      -0.00012508121143299999                   3.69922227495e-16                       122.876437653                                  124.359695454                                    159.296743725                       2.4715930814199999e-17  -6.8463581571000004e-16    1379                          229                         5                    -0.011855939311400001  0.084922175056600005  0.020561772412299999        1.9087111549899999e-13              3e-10                     
                     -2.8994841698600002e-16                          9907                                       1291.7153439900001                  8.6972299434700002e-10                1.6136957955999999e-22                   37.845270569199997                     37.845270561500001                     -0.000751252517677                      -0.00012508121143299999                   3.6994181229199998e-16                     127.40823661                                   128.05844006300001                               159.296743725                       2.4752325245800001e-17  -6.84642554524e-16      1609                          229                         6                    -0.0128094316816      0.084501230457199997  0.020461707584699999        1.8174353505200001e-13              3.4999999999999998e-10       
                     -2.8989332988399998e-16                          11288                                      884.902706147                       1.0182835714799999e-09                2.13399377999e-22                     37.845270569199997                     37.845270561500001                     -0.000751252517677                      -0.00012508121143299999                   3.6996236987199999e-16                     129.05386265000001                             129.05386265000001                               159.296743725                       2.4789375683599999e-17  -6.84645075439e-16      1839                          229                         7                    -0.013483616944699999  0.083994557960399993  0.0203568699381            1.98189204641e-13                4.0000000000000001e-10       
                     -2.89844848062e-16                            12663                                      1238.7779379599999                  9.2202961972200004e-10                1.42617067138e-22                     37.845270569199997                     37.845270561500001                     -0.000751252517677                      -0.00012508121143299999                   3.6998018222099998e-16                     117.685822479                                  135.816871889                                    159.296743725                       2.4822937740100001e-17  -6.8464796802299995e-16    2069                          229                         8                    -0.0138402595039      0.083390606739099996  0.020286110727000001        1.6215565704600001e-13              4.5e-10                   
                     -2.8979280445399999e-16                          14044                                      1083.4016409599999                  7.1365441555600003e-10                1.3959520948100001e-22                   37.845270569199997                     37.845270561500001                     -0.000751252517677                      -0.00012508121143299999                   3.7001712226100002e-16                     140.04419809500001                             140.04419809500001                               159.296743725                       2.4851980820200001e-17  -6.8466190753599998e-16    2299                          229                         9                    -0.014202794282200001  0.083826708057199995  0.020216000102999999        1.87296135785e-13                5.0000000000000003e-10       
                     -2.8975401007399998e-16                          15425                                      1090.9777536300001                  6.3292374373299997e-10                1.2236133065199999e-22                   37.845270569199997                     37.845270561500001                     -0.000751252517677                      -0.00012508121143299999                   3.7004089034000002e-16                     163.19078991000001                             167.991906583                                    167.991906583                       2.4875130972099999e-17  -6.8467003138700003e-16    2529                          229                         10                   -0.0143926847216      0.083018956372599997  0.020144783830600001        1.8618311735199999e-13              5.4999999999999996e-10       
                     -2.8972232283000002e-16                          16806                                      803.927298995                       4.3867429187e-10                   9.9267881769399997e-23                   37.845270569199997                     37.845270561500001                     -0.000751252517677                      -0.00012508121143299999                   3.7004701545400001e-16                     141.94425856999999                             163.19078991000001                               167.991906583                       2.48922096973e-17    -6.8466154798100003e-16    2759                          229                         11                   -0.014642286369       0.083803532668199995  0.0200981213268            2.03239857934e-13                6e-10                     
                     -2.8970495482600001e-16                          18181                                      990.28638072000001                  4.9780355724500001e-11                1.15828795164e-23                     37.845270569199997                     37.845270561500001                     -0.000751252517677                      -0.00012508121143299999                   3.7003036814299998e-16                     140.574864924                                  149.554802524                                    167.991906583                       2.49001611593e-17    -6.84635484128e-16      2989                          229                         12                   -0.015373302472900001  0.084662512057100001  0.020051890024900001        1.8408446241199999e-13              6.5000000000000003e-10       
                     -2.8969953912000001e-16                          19562                                      793.319967131                       9.7267560715799997e-11                2.68649453975e-23                     37.845270569199997                     37.845270561500001                     -0.000751252517677                      -0.00012508121143299999                   3.7000509266400001e-16                     143.80296137799999                             148.08710736099999                               167.991906583                       2.49068059916e-17    -6.84611437775e-16      3219                          229                         13                   -0.015052491623599999  0.085659106484300002  0.0199789969053            2.0250469254300001e-13              6.9999999999999996e-10       
                     -2.8969263887799998e-16                          20937                                      751.96006263000004                  3.3351547663100001e-11                1.23170970174e-23                     37.845270569199997                     37.845270561500001                     -0.000751252517677                      -0.00012508121143299999                   3.6998336652299999e-16                     123.022624286                                  143.80296137799999                               167.991906583                       2.4911392406e-17     -6.8458739780700003e-16    3449                          229                         14                   -0.0148223168414      0.088162806613300004  0.0198998019477            2.0135631443699999e-13              7.5e-10                   
                     -2.89692121103e-16                            22312                                      645.96468736199995                 -4.4713244610399999e-11               -3.8742405344799997e-24                   37.845270569199997                     37.845270561500001                     -0.000751252517677                      -0.00012508121143299999                   3.69957751917e-16                       118.777451654                                  123.056137542                                    167.991906583                       2.4911566581500001e-17  -6.8456143960200001e-16    3679                          229                         15                   -0.015044936121800001  0.090138832475799999  0.019862109099200002        2.0587451909e-13                 8.0000000000000003e-10       
                     -2.8969786996399998e-16                          23687                                      718.12505872099996                 -2.7969378297400002e-10               -5.1359898794200002e-23                   37.845270569199997                     37.845270561500001                     -0.000751252517677                      -0.00012508121143299999                   3.6994377831399999e-16                     117.721696998                                  118.777451654                                    167.991906583                       2.4897705660700001e-17  -6.8453935393900002e-16    3909                          229                         16                   -0.014769924543200001  0.091610286960499998  0.019877512129300001        1.9313916853099999e-13              8.4999999999999996e-10       
                     -2.89718877918e-16                            25068                                      817.26958582899999                 -6.4852618377599996e-10               -1.1777444494099999e-22                   37.845270569199997                     37.845270561500001                     -0.000751252517677                      -0.00012508121143299999                   3.6992202862e-16                        118.98522984100001                             118.98522984100001                               167.991906583                       2.4870201720299999e-17  -6.8451110825900001e-16    4139                          229                         17                   -0.013643343374       0.093534945156600005  0.019988147195799999        1.83412308484e-13                8.9999999999999999e-10       
                     -2.8976372619099998e-16                          26449                                      988.18751748600005                 -1.2691867412999999e-09               -2.2198264812100001e-22                   37.845270569199997                     37.845270561500001                     -0.000751252517677                      -0.00012508121143299999                   3.6991515657300002e-16                     120.45851348799999                             120.45851348799999                               167.991906583                       2.4824094742299999e-17  -6.8450297750600001e-16    4369                          229                         18                   -0.0119558664408      0.095733858743699995  0.020116040860699999        1.7480092174e-13                 9.5000000000000003e-10       
                     -2.8984463714700002e-16                          27830                                      1192.87389977                      -1.99977249729e-09                 -3.4548715202299998e-22                   37.845270569199997                     37.845270561500001                     -0.000751252517677                      -0.00012508121143299999                   3.6994256008999999e-16                     121.46526026799999                             121.46526026799999                               167.991906583                       2.47535134713e-17    -6.8454071070800005e-16    4599                          229                         19                   -0.0095025587122499998  0.097704049905999998  0.020196579751000001        1.722876538e-13                  1.0000000000000001e-09       
                     -2.8995337088500002e-16                          29211                                      1318.43180205                      -2.4484894625099999e-09               -4.3397990874900004e-22                   37.845270569199997                     37.845270561500001                     -0.000751252517677                      -0.00012508121143299999                   3.6994916264200002e-16                     123.009469985                                  123.009469985                                    167.991906583                       2.46714427009e-17    -6.8457397622800002e-16    4829                          229                         20                   -0.0062368687640800002  0.099594393913900001  0.020139425267200001        1.7735495968000001e-13              1.0500000000000001e-09       
                     -2.9007375611499998e-16                          30592                                      1231.6019481799999                 -2.3937892109000001e-09               -4.4966590046800002e-22                   37.845270569199997                     37.845270561500001                     -0.000751252517677                      -0.00012508121143299999                   3.6984829798599999e-16                     123.491066808                                  123.537161783                                    167.991906583                       2.45936353565e-17    -6.8451568945700004e-16    5059                          229                         21                   -0.0020911053407599999  0.10225958721599999  0.019893550187800001        1.8989599730499999e-13              1.0999999999999999e-09       
                     -2.9017020099899999e-16                          31973                                      953.48943893800003                 -1.5641335052700001e-09               -3.1358201825099999e-22                   37.845270569199997                     37.845270561500001                     -0.000751252517677                      -0.00012508121143299999                   3.6969407904500001e-16                     131.428306236                                  131.428306236                                    167.991906583                       2.45317178823e-17    -6.8439599792700002e-16    5289                          229                         22                    0.0020528514661899999  0.105182420177       0.0195235349083            2.0729673552500001e-13              1.15e-09                  
                     -2.90232698515e-16                            33348                                      764.56508444600001                 -1.16514522463e-09                 -2.40836576097e-22                     37.845270569199997                     37.845270561500001                     -0.000751252517677                      -0.00012508121143299999                   3.6955709446000002e-16                     121.487325625                                  135.81262501099999                               167.991906583                       2.4489403851999999e-17  -6.8427919682699998e-16    5519                          229                         23                    0.0049832677651500002  0.108037416183       0.019295431953899999        2.1657333129599999e-13              1.2e-09                   
                     -2.9027584645300001e-16                          34723                                      824.09689490599999                 -6.5253340468999999e-10               -1.27675400428e-22                     37.845270569199997                     37.845270561500001                     -0.000751252517677                      -0.00012508121143299999                   3.6951794092899999e-16                     120.461451909                                  121.487325625                                    167.991906583                       2.4464964875299999e-17  -6.84258752257e-16      5749                          229                         24                    0.0067791062790799996  0.110082080023       0.019211035034199998        2.0659992887099999e-13              1.25e-09                  
                     -2.9029235296899999e-16                          36098                                      711.732542008                      -8.3102757164899997e-12                4.8196892589200002e-24                   37.845270569199997                     37.845270561500001                     -0.000751252517677                      -0.00012508121143299999                   3.6957271085900002e-16                     121.043121672                                  123.6788392                                      167.991906583                       2.4468104308400001e-17  -6.8433316813600001e-16    5979                          229                         25                    0.0067891534894700001  0.11126431414100001  0.019249518301599999        2.0954958201400001e-13              1.3000000000000001e-09       
                     -2.9028197834900001e-16                          37473                                      873.640894162                       3.5087016340299999e-10                6.8048613711200005e-23                   37.845270569199997                     37.845270561500001                     -0.000751252517677                      -0.00012508121143299999                   3.69665832547e-16                       117.791901216                                  127.11606515299999                               167.991906583                       2.4494365783599999e-17  -6.8444217667899995e-16    6209                          229                         26                    0.0055423188816700001  0.112294453005       0.019391902682100001        1.88359420578e-13                1.3500000000000001e-09       
                     -2.9024956794099998e-16                          38854                                      666.02366995600005                  7.23990101661e-10                  1.5706944281599999e-22                   37.845270569199997                     37.845270561500001                     -0.000751252517677                      -0.00012508121143299999                   3.69753831472e-16                       116.692490803                                  117.791901216                                    167.991906583                       2.4535797536599999e-17  -6.8453919694999999e-16    6439                          229                         27                    0.0038004198601400002  0.112722480734       0.019555340440299999        2.0898960844699999e-13              1.3999999999999999e-09       
                     -2.90213811042e-16                            40229                                      770.00523898400002                  6.2693580739100003e-10                1.2476494261800001e-22                   37.845270569199997                     37.845270561500001                     -0.000751252517677                      -0.00012508121143299999                   3.6981175232099998e-16                     124.06523595500001                             124.26381381100001                               167.991906583                       2.4579626759100001e-17  -6.8460519012299996e-16    6669                          229                         28                    0.0023562787019300001  0.11403522787299999  0.019646266056800001        1.9445141083600001e-13              1.45e-09                  
                     -2.90179611674e-16                            41610                                      543.53272795500004                  6.99908097059e-10                  1.55773200499e-22                     37.845270569199997                     37.845270561500001                     -0.000751252517677                      -0.00012508121143299999                   3.6986213662900001e-16                     112.20170096699999                             124.06523595500001                               167.991906583                       2.4617744777399999e-17  -6.8465949307999998e-16    6899                          229                         29                    0.00070829105034799996  0.114541678284       0.019692101449             2.14951838343e-13                1.5e-09                   
                     -2.9014711188599999e-16                          42985                                      510.97107578599997                  5.2684704432900005e-10                1.1582121117599999e-22                   37.845270569199997                     37.845270561500001                     -0.000751252517677                      -0.00012508121143299999                   3.6991671794799998e-16                     116.64224623200001                             116.64224623200001                               167.991906583                       2.4644148358499999e-17  -6.8470797819300001e-16    7129                          229                         30                   -0.0014288021277699999  0.115211770312       0.019725910250199999        2.12069478741e-13                1.55e-09                  
                     -2.9012348651900002e-16                          44360                                      480.15772027499997                  4.0179258984699999e-10                8.7213870309300001e-23                   37.845270569199997                     37.845270561500001                     -0.000751252517677                      -0.00012508121143299999                   3.6998082985500002e-16                     119.773450416                                  119.773450416                                    167.991906583                       2.4658513047e-17     -6.8476282942100005e-16    7359                          229                         31                   -0.0036736486636600001  0.115898022007       0.019776828769399998        2.0940265627299999e-13              1.6000000000000001e-09       
                     -2.9010387255999998e-16                          45735                                      440.31018533000002                  3.5571703008900002e-10                7.6821351321799998e-23                   37.845270569199997                     37.845270561500001                     -0.000751252517677                      -0.00012508121143299999                   3.7005295984400002e-16                     120.996936483                                  121.070624463                                    167.991906583                       2.4668098342699999e-17  -6.8482493074699995e-16    7589                          229                         32                   -0.0062372421997300004  0.116174079512       0.019771918828500001        2.0893001752699999e-13              1.6500000000000001e-09       
                     -2.9008624926100002e-16                          47110                                      617.89388794599995                  3.1937768709499999e-10                5.7925754274100001e-23                   37.845270569199997                     37.845270561500001                     -0.000751252517677                      -0.00012508121143299999                   3.7012876965e-16                        114.994705182                                  120.996936483                                    167.991906583                       2.46747458017e-17    -6.8488976471200001e-16    7819                          229                         33                   -0.0090182978035399999  0.115952878385       0.019734198279400001        1.8050719252600001e-13              1.6999999999999999e-09       