# ODT 1.0
# Table Start
# Title: mmArchive Data Table, Sun Jul 16 14:58:19 CEST 2023
# Columns: {Anv_SpinTEvolve_3d:evolver:Total energy} {Anv_SpinTEvolve_3d:evolver:Energy calc count} {Anv_SpinTEvolve_3d:evolver:Max dm/dt} Anv_SpinTEvolve_3d:evolver:dE/dt {Anv_SpinTEvolve_3d:evolver:Delta E} {Anv_SpinTEvolve_3d:evolver:average u} {Anv_SpinTEvolve_3d:evolver:average ux} {Anv_SpinTEvolve_3d:evolver:average uy} {Anv_SpinTEvolve_3d:evolver:average uz} Oxs_UniformExchange:exchange:Energy {Oxs_UniformExchange:exchange:Max Spin Ang} {Oxs_UniformExchange:exchange:Stage Max Spin Ang} {Oxs_UniformExchange:exchange:Run Max Spin Ang} Oxs_Demag:demag:Energy Oxs_DMI_T:dmi:Energy Oxs_TimeDriver::Iteration {Oxs_TimeDriver::Stage iteration} Oxs_TimeDriver::Stage Oxs_TimeDriver::mx   Oxs_TimeDriver::my   Oxs_TimeDriver::mz   {Oxs_TimeDriver::Last time step} {Oxs_TimeDriver::Simulation time}
# Units:                       J                                           {}                                       deg/ns                               J/s                                 J                                    m/s                                     m/s                                     m/s                                     m/s                                    J                                      deg                                            deg                                              deg                                 J                     J                      {}                            {}                          {}                   {}                   {}                   {}                          s                                 s                
                     -2.8987696492199999e-16                          307                                        10416.927897                        5.4905333168400001e-08                1.02378559753e-20                     302.76216455399998                     302.76216449200001                     -0.0060100201414099996                    -0.0010006496914699999                   3.7039613262500001e-16                     126.62382063299999                             126.640693666                                    126.640693666                       2.4712673308299999e-17  -6.8498577085499998e-16    47                            47                          0                    -0.021725269352000001  0.019887656987299999  0.019993079394799999        1.8389345591800001e-13              9.9999999999999994e-12       
                     -2.89290822193e-16                            596                                        11038.076215900001                  5.0493433639499999e-08                5.31048956444e-21                     302.76216455399998                     302.76216449200001                     -0.0060100201414099996                    -0.0010006496914699999                   3.7068792820900002e-16                     138.28410833000001                             139.26122466699999                               139.26122466699999                  2.50022016191e-17    -6.8498095202199996e-16    94                            46                          1                    -0.021987519084900001  0.015750974185500002  0.019828216773399999        1.1459723002399999e-13              1.9999999999999999e-11       
                     -2.88718767481e-16                            891                                        12627.376816100001                  5.0932520272200003e-08                7.2055774604899996e-21                   302.76216455399998                     302.76216449200001                     -0.0060100201414099996                    -0.0010006496914699999                   3.7095901052900001e-16                     138.28427417                                   148.36033728199999                               148.36033728199999                  2.5292851480100001e-17  -6.8497062949e-16       141                           46                          2                    -0.022235628758899999  0.0111284549766      0.019895936851199999        1.4991130321899999e-13              3e-11                     
                     -2.88143664271e-16                            1192                                       13417.9943793                       5.1598987242299998e-08                7.0464036154700007e-21                   302.76216455399998                     302.76216449200001                     -0.0060100201414099996                    -0.0010006496914699999                   3.71225783e-16                          161.525510561                                  174.04851673799999                               174.04851673799999                  2.5611737861900001e-17  -6.8498118513200002e-16    188                           46                          3                    -0.022682121627899999  0.0064931518251500004  0.0201882569454            1.4803498953599999e-13              3.9999999999999998e-11       
                     -2.8754729979900002e-16                          1475                                       13030.382916799999                  4.4052906002699998e-08                4.7761668992800003e-21                   302.76216455399998                     302.76216449200001                     -0.0060100201414099996                    -0.0010006496914699999                   3.7156815037299999e-16                     146.18184142999999                             173.65366806500001                               174.04851673799999                  2.5952630415200001e-17  -6.8506808058700004e-16    235                           46                          4                    -0.023331308289199999  0.0021471799851000002  0.0205022144369            1.3627483488e-13                 5.0000000000000002e-11       
                     -2.86944594785e-16                            1770                                       14807.419594000001                  4.2694149856100001e-08                5.6946545414900002e-21                   302.76216455399998                     302.76216449200001                     -0.0060100201414099996                    -0.0010006496914699999                   3.7194605412e-16                        147.829987609                                  171.52649997699999                               174.04851673799999                  2.6303003592100001e-17  -6.8519365249699999e-16    282                           46                          5                    -0.02416948537       -0.00184087005763     0.020683111785399999        1.5843394966899999e-13              6e-11                     
                     -2.8634369447500001e-16                          2059                                       13617.061812399999                  4.4472571939299998e-08                6.8635100443999993e-21                   302.76216455399998                     302.76216449200001                     -0.0060100201414099996                    -0.0010006496914699999                   3.72309558238e-16                       135.377514346                                  163.60507868600001                               174.04851673799999                  2.6663803380299998e-17  -6.8531705609300001e-16    329                           46                          6                    -0.025054285558299999 -0.0055226128611199996  0.0207230000758            1.6738151417200001e-13              7.0000000000000004e-11       
                     -2.8574150286600001e-16                          2354                                       12053.6212099                       4.70416245562e-08                  8.8632340752899994e-21                   302.76216455399998                     302.76216449200001                     -0.0060100201414099996                    -0.0010006496914699999                   3.72648569168e-16                       131.42267841399999                             142.06704249800001                               174.04851673799999                  2.7031896676599999e-17  -6.8542196870999996e-16    376                           46                          7                    -0.0258311133529     -0.0089067777728300008  0.0206917218429            1.8160398045599999e-13              7.9999999999999995e-11       
                     -2.85141089848e-16                            2655                                       13964.878907300001                  4.79380365507e-08                  8.2948850085799999e-21                   302.76216455399998                     302.76216449200001                     -0.0060100201414099996                    -0.0010006496914699999                   3.72970907298e-16                       148.766990314                                  165.75029716                                     174.04851673799999                  2.7398578645499999e-17  -6.8551057579099997e-16    423                           46                          8                    -0.026414112028500001 -0.011981405492699999  0.020653709829799999        1.74501494877e-13                8.9999999999999999e-11       
                     -2.84558880058e-16                            2944                                       13309.709523899999                  4.9208893500800001e-08                9.0835283235500005e-21                   302.76216455399998                     302.76216449200001                     -0.0060100201414099996                    -0.0010006496914699999                   3.7326249090100002e-16                     148.97437853900001                             171.26051592300001                               174.04851673799999                  2.7752442528100001e-17  -6.8557381348700001e-16    470                           46                          9                    -0.0268203339055     -0.014792956735400001  0.020646645925099998        1.8038313409799999e-13              1e-10                     
                     -2.8399936764699999e-16                          3227                                       14248.5194233                       4.6111664891300002e-08                6.51770163488e-21                     302.76216455399998                     302.76216449200001                     -0.0060100201414099996                    -0.0010006496914699999                   3.73546538716e-16                       140.891538064                                  175.058919323                                    175.058919323                       2.8088147904600002e-17  -6.8563405426800001e-16    517                           46                          10                   -0.027044461026999998 -0.017484335564799999  0.020689368779699999        1.5583225466600001e-13              1.0999999999999999e-10       
                     -2.8346872747299998e-16                          3510                                       12059.288534400001                  4.1169409694699999e-08                6.1859192045799997e-21                   302.76216455399998                     302.76216449200001                     -0.0060100201414099996                    -0.0010006496914699999                   3.7383779747499999e-16                     114.055504962                                  178.28427780499999                               178.28427780499999                  2.8402377219600002e-17  -6.8570890216799995e-16    564                           46                          11                   -0.027012830178700001 -0.0201571726016      0.020763675616599999        1.62733758687e-13                1.2e-10                   
                     -2.82964671385e-16                            3793                                       13597.3755239                       4.1458928564700002e-08                7.0612113920500005e-21                   302.76216455399998                     302.76216449200001                     -0.0060100201414099996                    -0.0010006496914699999                   3.7416156022200002e-16                     131.20525004800001                             137.77766225299999                               178.28427780499999                  2.8692835823700003e-17  -6.8581906742999997e-16    611                           46                          12                   -0.026682931907799998 -0.0228309485796      0.0208105952505            1.72566152568e-13                1.2999999999999999e-10       
                     -2.8249459066399999e-16                          4076                                       17832.844968699999                  3.0896340268699997e-08                3.7080113102799998e-21                   302.76216455399998                     302.76216449200001                     -0.0060100201414099996                    -0.0010006496914699999                   3.74492433042e-16                       138.37522981800001                             144.330581064                                    178.28427780499999                  2.8959526141799997e-17  -6.8594654984799998e-16    658                           46                          13                   -0.0260426379816     -0.0255048109137      0.0207551366567            1.4837843162500001e-13              1.4000000000000001e-10       
                     -2.8206226568200001e-16                          4359                                       13030.2199614                       3.0965787194200001e-08                4.8906009797099998e-21                   302.76216455399998                     302.76216449200001                     -0.0060100201414099996                    -0.0010006496914699999                   3.7481062376599998e-16                     123.73774880400001                             161.071073482                                    178.28427780499999                  2.9203948980500001e-17  -6.8607683842900005e-16    705                           46                          14                   -0.025082788642699999 -0.0282358100397      0.0205513182091            1.6953273349099999e-13              1.5e-10                   
                     -2.8165965727799998e-16                          4636                                       17169.889692000001                  2.6174043559699999e-08                3.6689467577100003e-21                   302.76216455399998                     302.76216449200001                     -0.0060100201414099996                    -0.0010006496914699999                   3.75150581855e-16                       149.56270582100001                             176.714809285                                    178.28427780499999                  2.9425337721199999e-17  -6.86235576855e-16      752                           46                          15                   -0.023825565901      -0.031110171103699999  0.020203550931999999        1.62330676248e-13                1.5999999999999999e-10       
                     -2.81299081256e-16                            4919                                       18505.763675599999                  2.16429791479e-08                  2.8858565868199999e-21                   302.76216455399998                     302.76216449200001                     -0.0060100201414099996                    -0.0010006496914699999                   3.7550095760000001e-16                     147.00732378399999                             175.223370945                                    178.28427780499999                  2.9614327789300001e-17  -6.8641436664499996e-16    799                           46                          16                   -0.0223296686807     -0.034212229150400002  0.019749718730100001        1.62540023622e-13                1.7000000000000001e-10       
                     -2.8097673022300001e-16                          5202                                       14620.3895147                       2.2634832419700001e-08                4.4408721998500001e-21                   302.76216455399998                     302.76216449200001                     -0.0060100201414099996                    -0.0010006496914699999                   3.75880424882e-16                       146.44762794299999                             176.23206229799999                               178.28427780499999                  2.9763062744200003e-17  -6.8662021784900002e-16    846                           46                          17                   -0.020680992433399999 -0.037610228253700001  0.019231554871399999        1.8320121649900001e-13              1.8e-10                   
                     -2.80689321272e-16                            5485                                       18217.690930600002                  1.3766469848600001e-08                1.50177008458e-21                     302.76216455399998                     302.76216449200001                     -0.0060100201414099996                    -0.0010006496914699999                   3.7629204917899999e-16                     145.01542728699999                             165.87873347300001                               178.28427780499999                  2.9868838312699997e-17  -6.8685020876399998e-16    893                           46                          18                   -0.018971869210700001 -0.041343935611599998  0.018688502131300001        1.5765231512999999e-13              1.8999999999999999e-10       
                     -2.8044253743900001e-16                          5768                                       16832.884240700001                  1.3846126662e-08                   2.80849534261e-21                     302.76216455399998                     302.76216449200001                     -0.0060100201414099996                    -0.0010006496914699999                   3.7670202383100001e-16                     144.77255592899999                             171.77745039999999                               178.28427780499999                  2.9937144080200001e-17  -6.8708170535000003e-16    940                           46                          19                   -0.017286422575900001 -0.0454120053041      0.018151414956199999        1.83028672131e-13                2.0000000000000001e-10       
                     -2.8023373564100001e-16                          6051                                       13193.499754300001                  1.2070057035200001e-08                1.5194809283600001e-21                   302.76216455399998                     302.76216449200001                     -0.0060100201414099996                    -0.0010006496914699999                   3.77099355597e-16                       118.422964831                                  172.103276335                                    178.28427780499999                  2.9975034642800001e-17  -6.8730812588100002e-16    987                           46                          20                   -0.015687527413099998 -0.049792336561299999  0.017643690090000001        1.64807596498e-13                2.1e-10                   
                     -2.8005242494699998e-16                          6334                                       19007.246289999999                  3.9700150779799996e-09                3.7731334267400001e-23                   302.76216455399998                     302.76216449200001                     -0.0060100201414099996                    -0.0010006496914699999                   3.7749940030699999e-16                     141.38312126700001                             172.333762111                                    178.28427780499999                  2.9986614711799998e-17  -6.8753843996600001e-16    1034                          46                          21                   -0.014232124571400001 -0.054446586074599998  0.017165767029800001        1.60229131663e-13                2.1999999999999999e-10       
                     -2.7991500480199999e-16                          6617                                       17687.3521411                       2.83294423184e-09                  9.2033267012400008e-22                   302.76216455399998                     302.76216449200001                     -0.0060100201414099996                    -0.0010006496914699999                   3.7784683998700001e-16                     157.26441641900001                             157.26441641900001                               178.28427780499999                  2.9975469683900001e-17  -6.8773731447399997e-16    1081                          46                          22                   -0.012978606848799999 -0.0593329515623      0.016670272117799999        1.8523623047899999e-13              2.3000000000000001e-10       
                     -2.79831905398e-16                            6900                                       16770.406024899999                 -5.1141087353200003e-09               -1.2919295507900001e-21                   302.76216455399998                     302.76216449200001                     -0.0060100201414099996                    -0.0010006496914699999                   3.7813082721100001e-16                     128.326312524                                  175.36237673799999                               178.28427780499999                  2.9933305645799997e-17  -6.8789603825499996e-16    1128                          46                          23                   -0.0119331780926     -0.064392079512100006  0.0160901985184            1.6418738809100001e-13              2.4e-10                   
                     -2.7980830479899998e-16                          7183                                       17552.074655600001                 -7.2514178350800001e-09               -1.32501702147e-21                     302.76216455399998                     302.76216449200001                     -0.0060100201414099996                    -0.0010006496914699999                   3.7837195621199999e-16                     133.81779109300001                             175.70455787700001                               178.28427780499999                  2.9839645185000002e-17  -6.8801990619699999e-16    1175                          46                          24                   -0.0110197403137     -0.069548225970599994  0.015438256176900001        1.74394964033e-13                2.5000000000000002e-10       
# Table End
