# ODT 1.0
# Table Start
# Title: mmArchive Data Table, Sun Jul 16 10:54:24 CEST 2023
# Columns: {Oxs_CGEvolve:evolver:Max mxHxm} {Oxs_CGEvolve:evolver:Total energy} {Oxs_CGEvolve:evolver:Delta E} {Oxs_CGEvolve:evolver:Bracket count} {Oxs_CGEvolve:evolver:Line min count} {Oxs_CGEvolve:evolver:Conjugate cycle count} {Oxs_CGEvolve:evolver:Cycle count} {Oxs_CGEvolve:evolver:Cycle sub count} {Oxs_CGEvolve:evolver:Energy calc count} Oxs_UniformExchange:exchange:Energy {Oxs_UniformExchange:exchange:Max Spin Ang} {Oxs_UniformExchange:exchange:Stage Max Spin Ang} {Oxs_UniformExchange:exchange:Run Max Spin Ang} Oxs_Demag:demag:Energy Oxs_DMI_T:dmi:Energy Oxs_MinDriver::Iteration {Oxs_MinDriver::Stage iteration} Oxs_MinDriver::Stage Oxs_MinDriver::mx    Oxs_MinDriver::my    Oxs_MinDriver::mz   
# Units:                 A/m                                 J                                J                                 {}                                   {}                                        {}                                      {}                                   {}                                      {}                                     J                                      deg                                            deg                                              deg                                 J                     J                      {}                           {}                         {}                 {}                   {}                   {}           
                  0.098162192887799996              -2.9023776101499998e-16               0                                 2624                                 1644                                      16                                      2584                                 712                                     4269                                  3.6960962633300002e-16                     112.16385076                                   136.345166611                                    136.345166611                       2.4590652102200001e-17  -6.8443803944999996e-16    4242                         4242                       0                   -0.0086899458992399994  0.094155536930800005  0.020019530903400001
# Table End
