# ODT 1.0
# Table Start
# Title: mmArchive Data Table, Sun Jul 16 13:00:33 CEST 2023
# Columns: {Anv_SpinTEvolve_3d:evolver:Total energy} {Anv_SpinTEvolve_3d:evolver:Energy calc count} {Anv_SpinTEvolve_3d:evolver:Max dm/dt} Anv_SpinTEvolve_3d:evolver:dE/dt {Anv_SpinTEvolve_3d:evolver:Delta E} {Anv_SpinTEvolve_3d:evolver:average u} {Anv_SpinTEvolve_3d:evolver:average ux} {Anv_SpinTEvolve_3d:evolver:average uy} {Anv_SpinTEvolve_3d:evolver:average uz} Oxs_UniformExchange:exchange:Energy {Oxs_UniformExchange:exchange:Max Spin Ang} {Oxs_UniformExchange:exchange:Stage Max Spin Ang} {Oxs_UniformExchange:exchange:Run Max Spin Ang} Oxs_Demag:demag:Energy Oxs_DMI_T:dmi:Energy Oxs_TimeDriver::Iteration {Oxs_TimeDriver::Stage iteration} Oxs_TimeDriver::Stage Oxs_TimeDriver::mx   Oxs_TimeDriver::my   Oxs_TimeDriver::mz   {Oxs_TimeDriver::Last time step} {Oxs_TimeDriver::Simulation time}
# Units:                       J                                           {}                                       deg/ns                               J/s                                 J                                    m/s                                     m/s                                     m/s                                     m/s                                    J                                      deg                                            deg                                              deg                                 J                     J                      {}                            {}                          {}                   {}                   {}                   {}                          s                                 s                
                     -2.81956725449e-16                            1495                                       4727.6235140600002                 -2.9313718782000001e-08               -2.40919042701e-21                     37.845270569199997                     37.845270561500001                     -0.000751252517677                      -0.00012508121143299999                   3.7838700045400002e-16                     122.422965416                                  174.00480221699999                               174.00480221699999                  2.8412233774900001e-17  -6.8875595967800001e-16    234                           234                         0                    -0.0071463923868700001  0.013445423965499999  0.018466358478399999        8.1928504153500003e-14              5.0000000000000002e-11       
                     -2.83153659097e-16                            2918                                       4568.2921760600002                 -2.1694599977e-08                  -3.6133667892599998e-21                   37.845270569199997                     37.845270561500001                     -0.000751252517677                      -0.00012508121143299999                   3.78120828458e-16                       145.84813254700001                             145.84813254700001                               174.00480221699999                  2.7695297699000001e-17  -6.8896978525299999e-16    464                           229                         1                    -0.0098095124181800004  0.0154326135472      0.019867251792099999        1.6488544697299999e-13              1e-10                     
                     -2.8408867452800001e-16                          4299                                       4278.0053872899998                 -1.7705656301300002e-08               -3.2171850187800001e-21                   37.845270569199997                     37.845270561500001                     -0.000751252517677                      -0.00012508121143299999                   3.7716007443900002e-16                     157.86461097399999                             173.15536384000001                               174.00480221699999                  2.72096729225e-17    -6.8845842188899995e-16    694                           229                         2                    -0.0130101941618      0.016924894218499999  0.019719063790400001        1.8287261292700001e-13              1.5e-10                   
                     -2.8481753642100001e-16                          5680                                       5073.7564759500001                 -1.32235313975e-08                 -2.27077861707e-21                     37.845270569199997                     37.845270561500001                     -0.000751252517677                      -0.00012508121143299999                   3.7615542507499998e-16                     132.118372064                                  161.32552355799999                               174.00480221699999                  2.6895699490799999e-17  -6.8786866098600002e-16    924                           229                         3                    -0.016110643180900001  0.0148115161067      0.019178169686900001        1.6957459129e-13                 2.0000000000000001e-10       
                     -2.8531143339900002e-16                          7061                                       3587.0680267399998                 -8.7536986530799996e-09               -1.61460201443e-21                     37.845270569199997                     37.845270561500001                     -0.000751252517677                      -0.00012508121143299999                   3.7547130608000001e-16                     132.21053601899999                             154.44087001299999                               174.00480221699999                  2.6707936298e-17     -6.8749067577700002e-16    1154                          229                         4                    -0.020008951958599999  0.0112448007838      0.018753399908700001        1.9197031147200001e-13              2.5000000000000002e-10       
                     -2.8562188311399998e-16                          8442                                       2441.78156769                      -4.9768588994500003e-09               -2.7275907436100001e-22                   37.845270569199997                     37.845270561500001                     -0.000751252517677                      -0.00012508121143299999                   3.75124730684e-16                       127.347942984                                  173.28769724899999                               174.00480221699999                  2.6568464681399999e-17  -6.8731507848000002e-16    1385                          230                         5                    -0.020701804066400001  0.00723482789642     0.018194926368500002        5.4285452560900002e-14              3e-10                     
                     -2.8579717435700001e-16                          9823                                       3828.7690889                       -3.1908179009199999e-09               -4.9396967567300003e-22                   37.845270569199997                     37.845270561500001                     -0.000751252517677                      -0.00012508121143299999                   3.7483628857700001e-16                     120.19575147                                   128.17023197399999                               174.00480221699999                  2.6488758620799999e-17  -6.8712222155499996e-16    1615                          229                         6                    -0.018483363150400001  0.0036900258871399999  0.0182866428308            1.4077103400600001e-13              3.4999999999999998e-10       
                     -2.8589714667799998e-16                          11204                                      2112.4624624600001                 -2.32615519215e-09                 -4.0980581261099999e-22                   37.845270569199997                     37.845270561500001                     -0.000751252517677                      -0.00012508121143299999                   3.7436782302400002e-16                     141.469371569                                  151.50734664500001                               174.00480221699999                  2.6468914004199999e-17  -6.8673388370600001e-16    1845                          229                         7                    -0.015654076942400001  0.00087334470213000005  0.018699758677500001        2.16381911207e-13                4.0000000000000001e-10       
                     -2.85993644337e-16                            12579                                      2182.6388502300001                 -2.7156125936899998e-09               -5.0794243856400001e-22                   37.845270569199997                     37.845270561500001                     -0.000751252517677                      -0.00012508121143299999                   3.7360312378200002e-16                     134.86020148899999                             149.209157234                                    174.00480221699999                  2.6498316464099999e-17  -6.8609508458299998e-16    2075                          229                         8                    -0.013291008931400001 -0.00137546907703     0.018680847215000001        2.0780108884000001e-13              4.5e-10                   
                     -2.8625912941699999e-16                          13954                                      1896.3861480400001                 -1.0289376250600001e-08               -2.0549791978899998e-21                   37.845270569199997                     37.845270561500001                     -0.000751252517677                      -0.00012508121143299999                   3.7243887893000001e-16                     128.684261142                                  173.82980785000001                               174.00480221699999                  2.64923474815e-17    -6.8519035582799998e-16    2305                          229                         9                    -0.013774808247399999 -0.0031716357143399998  0.017532161442899999        2.03785336559e-13                5.0000000000000003e-10       
                     -2.8705601087999998e-16                          15329                                      3059.59171139                      -1.6471731183199999e-08               -2.7582746015199999e-21                   37.845270569199997                     37.845270561500001                     -0.000751252517677                      -0.00012508121143299999                   3.7204527856200001e-16                     135.584514141                                  146.713663201                                    174.00480221699999                  2.61282992527e-17    -6.85229588695e-16      2535                          229                         10                   -0.020234735363700001 -0.0076269779428600002  0.0173174004198            1.6660679644999999e-13              5.4999999999999996e-10       
                     -2.87847067191e-16                            16710                                      1896.9581918700001                 -1.5376204952999999e-08               -3.1784191267899999e-21                   37.845270569199997                     37.845270561500001                     -0.000751252517677                      -0.00012508121143299999                   3.7238875446700002e-16                     141.153081945                                  150.07250014799999                               174.00480221699999                  2.5641824041900001e-17  -6.8587764570000001e-16    2765                          229                         11                   -0.018115034390599999 -0.0079330163718999997  0.020028222448499999        2.0927396195000001e-13              6e-10                     
                     -2.8843524564800001e-16                          18085                                      1711.5261905100001                 -8.9110119423199994e-09               -1.78102053178e-21                     37.845270569199997                     37.845270561500001                     -0.000751252517677                      -0.00012508121143299999                   3.7212445195699998e-16                     136.67690630300001                             147.63455062400001                               174.00480221699999                  2.53283175482e-17    -6.85888015154e-16      2995                          229                         12                   -0.0131023672221     -0.0043993685367699998  0.022281760183800001        2.0221594835599999e-13              6.5000000000000003e-10       
                     -2.88763218784e-16                            19460                                      2420.1668655799999                 -5.1335706984600001e-09               -8.8119278444500001e-22                   37.845270569199997                     37.845270561500001                     -0.000751252517677                      -0.00012508121143299999                   3.71588072314e-16                       140.88828152100001                             148.03461469800001                               174.00480221699999                  2.5234112802100001e-17  -6.8558540389899995e-16    3225                          229                         13                   -0.0048544787094000003 -0.0040881098312999997  0.022535133346800001        1.70629795011e-13                6.9999999999999996e-10       
                     -2.8899219019e-16                             20841                                      3270.0518010699998                 -5.3067105276099996e-09               -8.3338141293999996e-22                   37.845270569199997                     37.845270561500001                     -0.000751252517677                      -0.00012508121143299999                   3.7121135516799998e-16                     132.80201384200001                             141.28965038000001                               174.00480221699999                  2.5069300676500001e-17  -6.8527284603399999e-16    3455                          229                         14                    0.0060789456776300004 -0.0051319646350300001  0.023763696137900001        1.52418047555e-13                7.5e-10                   
                     -2.89271460007e-16                            22222                                      2018.5972725199999                 -5.76027931896e-09                 -1.15663173168e-21                     37.845270569199997                     37.845270561500001                     -0.000751252517677                      -0.00012508121143299999                   3.7085951932100002e-16                     127.607933303                                  162.34399573600001                               174.00480221699999                  2.49154873932e-17    -6.8504646672200004e-16    3685                          229                         15                    0.0110386266789     -0.0086047192781300002  0.023593931635199999        2.0740929328399999e-13              8.0000000000000003e-10       
                     -2.8951243123099999e-16                          23597                                      2328.00791699                      -4.05368535643e-09                 -7.2661367997899996e-22                   37.845270569199997                     37.845270561500001                     -0.000751252517677                      -0.00012508121143299999                   3.7086665219599999e-16                     128.5636882                                    131.50319112299999                               174.00480221699999                  2.4834702982599999e-17  -6.8521378640999998e-16    3915                          229                         16                    0.0111482815738     -0.0091561076995999996  0.0217114023016            1.7965641141900001e-13              8.4999999999999996e-10       
                     -2.8966945669399999e-16                          24978                                      1302.2906072799999                 -2.5242108448500002e-09               -5.1144037550499996e-22                   37.845270569199997                     37.845270561500001                     -0.000751252517677                      -0.00012508121143299999                   3.7097810811700002e-16                     112.35384924100001                             130.35775555999999                               174.00480221699999                  2.47149233124e-17    -6.8536248812300004e-16    4145                          229                         17                    0.010669867728599999 -0.0072976966833800004  0.0203932516123            2.09812146834e-13                8.9999999999999999e-10       
                     -2.8975710207499998e-16                          26353                                      2191.9902111500001                 -1.3116426504e-09                  -2.1265903181500001e-22                   37.845270569199997                     37.845270561500001                     -0.000751252517677                      -0.00012508121143299999                   3.7093726504099998e-16                     115.29390069                                   130.32385375600001                               174.00480221699999                  2.4652125675800001e-17  -6.8534649279099996e-16    4375                          229                         18                    0.010330103765200001 -0.0050364788363299997  0.020144384198399999        1.53197364448e-13                9.5000000000000003e-10       
                     -2.8979455310299999e-16                          27734                                      1312.0474237200001                 -3.5059530766200001e-10               -5.5866634736000005e-23                   37.845270569199997                     37.845270561500001                     -0.000751252517677                      -0.00012508121143299999                   3.7072353175e-16                        129.96505314300001                             132.46617888                                     174.00480221699999                  2.4650481649100001e-17  -6.8516856650200005e-16    4605                          229                         19                    0.011226494545499999 -0.0029848572450100002  0.0199909148177            2.0636317209600001e-13              1.0000000000000001e-09       
                     -2.8981015380199998e-16                          29109                                      2145.3712792900001                 -3.4929668074099999e-10               -6.3479574783100003e-23                   37.845270569199997                     37.845270561500001                     -0.000751252517677                      -0.00012508121143299999                   3.70542662054e-16                       157.68197692699999                             157.68197692699999                               174.00480221699999                  2.4674127919799999e-17  -6.8502694377600004e-16    4835                          229                         20                    0.013100636350599999 -0.0014992126672899999  0.019982402214400001        1.6057703215699999e-13              1.0500000000000001e-09       
                     -2.8984113642700001e-16                          30490                                      1951.8402234099999                 -1.13069180226e-09                 -1.9958959410900001e-22                   37.845270569199997                     37.845270561500001                     -0.000751252517677                      -0.00012508121143299999                   3.7041463208100002e-16                     127.372344852                                  158.42864854499999                               174.00480221699999                  2.4677387455300001e-17  -6.8493315596299997e-16    5065                          229                         21                    0.0159767308201      9.3967710803199994e-06  0.0199767002581            1.7684248311199999e-13              1.0999999999999999e-09       
                     -2.89909913671e-16                            31871                                      1754.85384916                      -2.0198645992099998e-09               -3.5937487893700002e-22                   37.845270569199997                     37.845270561500001                     -0.000751252517677                      -0.00012508121143299999                   3.7034334714499998e-16                     124.900020001                                  136.299962709                                    174.00480221699999                  2.46400343063e-17    -6.8489329512199997e-16    5295                          229                         22                    0.0208277503452      0.0019359800381800001  0.020098588237699999        1.78315460777e-13                1.15e-09                  
                     -2.9000027881200001e-16                          33252                                      1359.9344200999999                 -1.84592464546e-09                 -3.5019073618199998e-22                   37.845270569199997                     37.845270561500001                     -0.000751252517677                      -0.00012508121143299999                   3.7021054717500001e-16                     120.297013421                                  124.900020001                                    174.00480221699999                  2.45926131705e-17    -6.8480343915700004e-16    5525                          229                         23                    0.0255516919607      0.0036375341091899999  0.020139863937099999        1.93792499434e-13                1.2e-09                   
                     -2.90070955726e-16                            34633                                      1346.8717904                       -1.26932310075e-09                 -2.3004215944499998e-22                   37.845270569199997                     37.845270561500001                     -0.000751252517677                      -0.00012508121143299999                   3.6999866779099998e-16                     131.01731353700001                             134.322269264                                    174.00480221699999                  2.45573735495e-17    -6.8462699706699996e-16    5755                          229                         24                    0.0283931039274      0.0056142689321599997  0.019931664098600001        1.82664558319e-13                1.25e-09                  
                     -2.9010394950600002e-16                          36014                                      1534.9090953699999                 -4.9808753315699999e-10               -8.7142936321700003e-23                   37.845270569199997                     37.845270561500001                     -0.000751252517677                      -0.00012508121143299999                   3.6980427785599999e-16                     157.17581426000001                             157.17581426000001                               174.00480221699999                  2.4544864466699999e-17  -6.8445309182899999e-16    5985                          229                         25                    0.029748804296900001  0.0084646444954900001  0.0196699658565            1.7161417799900001e-13              1.3000000000000001e-09       
                     -2.9012243604899999e-16                          37395                                      790.34613203499998                 -1.78249089544e-10                 -2.6164122560199999e-23                   37.845270569199997                     37.845270561500001                     -0.000751252517677                      -0.00012508121143299999                   3.6970777035699999e-16                     139.79727176                                   157.227476158                                    174.00480221699999                  2.45407916117e-17    -6.8437099801800002e-16    6215                          229                         26                    0.029824119689800001  0.010675450037399999  0.0195236957239            2.18789453424e-13                1.3500000000000001e-09       
                     -2.9012467556999999e-16                          38770                                      1128.2200132400001                  7.5715994329300006e-11                1.39654457388e-23                     37.845270569199997                     37.845270561500001                     -0.000751252517677                      -0.00012508121143299999                   3.6972617999e-16                        119.68064871999999                             139.79727176                                     174.00480221699999                  2.45476971458e-17    -6.8439855270599998e-16    6445                          229                         27                    0.028646388672900001  0.0121553691376      0.019518948842400002        1.79235133204e-13                1.3999999999999999e-09       
                     -2.9010328610900001e-16                          40151                                      690.551031588                       6.7132309918900004e-10                1.4900741856900001e-22                   37.845270569199997                     37.845270561500001                     -0.000751252517677                      -0.00012508121143299999                   3.69837674284e-16                       120.791462658                                  132.96571191999999                               174.00480221699999                  2.4572986123e-17     -6.8451394651599999e-16    6675                          229                         28                    0.0259552046985      0.013833710597899999  0.019694073703400001        2.1138835963200001e-13              1.45e-09                  
                     -2.9005769656e-16                             41526                                      890.41873356899998                  9.3329413364800007e-10                1.7120699454000001e-22                   37.845270569199997                     37.845270561500001                     -0.000751252517677                      -0.00012508121143299999                   3.6997661379099998e-16                     132.34799891899999                             132.34799891899999                               174.00480221699999                  2.4611679924100001e-17  -6.8464599027499999e-16    6905                          229                         29                    0.022962341397699999  0.015881379209800001  0.019883407587799998        1.8243527947399999e-13              1.5e-09                   
                     -2.9000706599700002e-16                          42907                                      731.49308875400004                  9.9030966159200008e-10                1.95194154896e-22                     37.845270569199997                     37.845270561500001                     -0.000751252517677                      -0.00012508121143299999                   3.7008094510300001e-16                     126.13175229700001                             137.95434251500001                               174.00480221699999                  2.4659827321900001e-17  -6.8474783842200005e-16    7135                          229                         30                    0.020104448428799999  0.0185795965024      0.020019226706900001        1.9432576283600001e-13              1.55e-09                  
                     -2.8995617309999999e-16                          44282                                      584.36794469300003                  9.1186027742799996e-10                1.90502453695e-22                     37.845270569199997                     37.845270561500001                     -0.000751252517677                      -0.00012508121143299999                   3.7015703134499998e-16                     126.616677907                                  126.616677907                                    174.00480221699999                  2.4704376113200001e-17  -6.8481758055799997e-16    7365                          229                         31                    0.016856241223300001  0.0199838487137      0.020118149885500002        2.04874845047e-13                1.6000000000000001e-09       
                     -2.8991730482399998e-16                          45657                                      554.96717499099998                  5.9965768237099998e-10                1.21617591068e-22                     37.845270569199997                     37.845270561500001                     -0.000751252517677                      -0.00012508121143299999                   3.7021760949899998e-16                     129.32845222200001                             129.65235930099999                               174.00480221699999                  2.4733853338900001e-17  -6.8486876766099995e-16    7595                          229                         32                    0.013622260927900001  0.021763561810900001  0.020176799353899998        1.98975681719e-13                1.6500000000000001e-09       
                     -2.8989222080300001e-16                          47032                                      518.88159231700001                  4.1683320880299999e-10                8.3555861796499996e-23                   37.845270569199997                     37.845270561500001                     -0.000751252517677                      -0.00012508121143299999                   3.7028227102699998e-16                     129.700440708                                  129.700440708                                    174.00480221699999                  2.4750302305599999e-17  -6.8492479413600001e-16    7825                          229                         33                    0.0099854471987200003  0.023797913794600001  0.020260536582599999        1.9652299841900001e-13              1.6999999999999999e-09       