# ODT 1.0
# Table Start
# Title: mmArchive Data Table, Sun Jul 16 15:06:03 CEST 2023
# Columns: {Anv_SpinTEvolve_3d:evolver:Total energy} {Anv_SpinTEvolve_3d:evolver:Energy calc count} {Anv_SpinTEvolve_3d:evolver:Max dm/dt} Anv_SpinTEvolve_3d:evolver:dE/dt {Anv_SpinTEvolve_3d:evolver:Delta E} {Anv_SpinTEvolve_3d:evolver:average u} {Anv_SpinTEvolve_3d:evolver:average ux} {Anv_SpinTEvolve_3d:evolver:average uy} {Anv_SpinTEvolve_3d:evolver:average uz} Oxs_UniformExchange:exchange:Energy {Oxs_UniformExchange:exchange:Max Spin Ang} {Oxs_UniformExchange:exchange:Stage Max Spin Ang} {Oxs_UniformExchange:exchange:Run Max Spin Ang} Oxs_Demag:demag:Energy Oxs_DMI_T:dmi:Energy Oxs_TimeDriver::Iteration {Oxs_TimeDriver::Stage iteration} Oxs_TimeDriver::Stage Oxs_TimeDriver::mx   Oxs_TimeDriver::my   Oxs_TimeDriver::mz   {Oxs_TimeDriver::Last time step} {Oxs_TimeDriver::Simulation time}
# Units:                       J                                           {}                                       deg/ns                               J/s                                 J                                    m/s                                     m/s                                     m/s                                     m/s                                    J                                      deg                                            deg                                              deg                                 J                     J                      {}                            {}                          {}                   {}                   {}                   {}                          s                                 s                
                     -2.8188551828399999e-16                          1495                                       4963.2692027599996                 -3.0526962059599998e-08               -2.3227692141899999e-21                   37.845270569199997                     37.845270561500001                     -0.000751252517677                      -0.00012508121143299999                   3.78776485977e-16                       140.647877483                                  150.414303636                                    150.414303636                       2.8437531155299997e-17  -6.8909953541599996e-16    234                           234                         0                    -0.0089236317787699995 -0.074777468269900005  0.018974249678600001        7.5809872419799997e-14              5.0000000000000002e-11       
                     -2.8312280615400001e-16                          2966                                       3819.7257206999998                 -2.1498869172299998e-08               -1.33144827774e-21                     37.845270569199997                     37.845270561500001                     -0.000751252517677                      -0.00012508121143299999                   3.7836974883499998e-16                     127.546862019                                  145.85675809700001                               150.414303636                       2.77055467611e-17    -6.8919810175000004e-16    465                           230                         1                    -0.0092075250626700005 -0.072964896334099999  0.020036232568700001        6.1800601739499996e-14              1e-10                     
                     -2.8407329855799998e-16                          4437                                       3837.9173563300001                 -1.65558214816e-08                 -8.8423643242199999e-22                   37.845270569199997                     37.845270561500001                     -0.000751252517677                      -0.00012508121143299999                   3.77556150902e-16                       148.54603406199999                             148.54603406199999                               150.414303636                       2.7185392104699999e-17  -6.8881484156500001e-16    696                           230                         2                    -0.010655363880100001 -0.071860208997499994  0.019868225874999999        5.3260181028200001e-14              1.5e-10                   
                     -2.8478800422499998e-16                          5824                                       4139.6135710299995                 -1.25122442071e-08                 -1.8247281035300001e-21                   37.845270569199997                     37.845270561500001                     -0.000751252517677                      -0.00012508121143299999                   3.7648347169099999e-16                     135.52479441700001                             170.15983465100001                               170.15983465100001                  2.6887101348000001e-17  -6.88158577265e-16      926                           229                         3                    -0.0143337857799     -0.073181357786500006  0.0193666128282            1.4119973591399999e-13              2.0000000000000001e-10       
                     -2.85259797923e-16                            7205                                       3975.8024760200001                 -8.4580062486e-09                  -1.53084605547e-21                     37.845270569199997                     37.845270561500001                     -0.000751252517677                      -0.00012508121143299999                   3.7573778265599998e-16                     131.265624006                                  162.592160812                                    170.15983465100001                  2.6729152473100001e-17  -6.8772673305200003e-16    1156                          229                         4                    -0.017700394727299999 -0.076277723691100002  0.018776913825000002        1.8314564791099999e-13              2.5000000000000002e-10       
                     -2.85544668816e-16                            8586                                       4632.3711590200001                 -5.4268669776500002e-09               -9.4672922143899998e-22                   37.845270569199997                     37.845270561500001                     -0.000751252517677                      -0.00012508121143299999                   3.7536150754400002e-16                     137.006039474                                  174.881304586                                    174.881304586                       2.6597488103499999e-17  -6.8750366446299996e-16    1386                          229                         5                    -0.017677890588000001 -0.079570026545099995  0.018170917856900001        1.69902346002e-13                3e-10                     
                     -2.8572072796100001e-16                          9973                                       2543.8530031999999                 -2.5123406405699998e-09               -1.45293119524e-22                     37.845270569199997                     37.845270561500001                     -0.000751252517677                      -0.00012508121143299999                   3.75016159198e-16                       129.51875063599999                             142.57833882599999                               174.881304586                       2.6512708399600001e-17  -6.87249595559e-16      1617                          230                         6                    -0.0141015862317     -0.083195500746500006  0.018435274578699999        5.6946528136000005e-14              3.4999999999999998e-10       
                     -2.8582750145500001e-16                          11444                                      3467.98355133                      -2.3162627591400001e-09               -4.0613234787299998e-22                   37.845270569199997                     37.845270561500001                     -0.000751252517677                      -0.00012508121143299999                   3.7451895110100001e-16                     137.07020508799999                             137.07020508799999                               174.881304586                       2.64913926102e-17    -6.8683784516600003e-16    1847                          229                         7                    -0.0095658558618299996 -0.085988192188799994  0.018871252592199999        2.07111559352e-13                4.0000000000000001e-10       
                     -2.8593077995199998e-16                          12915                                      3060.3806852500002                 -3.0809804742400001e-09               -2.5089935227699998e-22                   37.845270569199997                     37.845270561500001                     -0.000751252517677                      -0.00012508121143299999                   3.7370784812599998e-16                     141.354144875                                  141.354144875                                    174.881304586                       2.65260661886e-17    -6.8616469426599997e-16    2078                          230                         8                    -0.0071488450831199996 -0.088473017154200001  0.0186984137048            8.0462598063799995e-14              4.5e-10                   
                     -2.8623346642900002e-16                          14386                                      1907.79190606                      -1.17827347265e-08                 -9.1910103171899999e-22                   37.845270569199997                     37.845270561500001                     -0.000751252517677                      -0.00012508121143299999                   3.7249107469700002e-16                     136.338039366                                  156.49926743099999                               174.881304586                       2.65007631725e-17    -6.8522530429800003e-16    2309                          230                         9                    -0.0096812296584799992 -0.089676964817700003  0.017063129516499999        7.8027785213899998e-14              5.0000000000000003e-10       
                     -2.8720530302299998e-16                          15851                                      2567.7840860199999                 -2.2110065314599999e-08               -4.0868636046700001e-21                   37.845270569199997                     37.845270561500001                     -0.000751252517677                      -0.00012508121143299999                   3.7221451293799999e-16                     159.77971650000001                             163.41358973000001                               174.881304586                       2.5978699323000001e-17  -6.8539851528300003e-16    2539                          229                         10                   -0.016887366756399999 -0.092785749931699996  0.016676405915200001        1.85078963209e-13                5.4999999999999996e-10       
                     -2.8807044085899999e-16                          17310                                      3609.2371902499999                 -1.2533203090400001e-08               -2.53273063815e-21                     37.845270569199997                     37.845270561500001                     -0.000751252517677                      -0.00012508121143299999                   3.7298946028699999e-16                     133.520906166                                  159.77971650000001                               174.881304586                       2.5466077504399999e-17  -6.8652597865000002e-16    2769                          229                         11                   -0.0150936303778     -0.092274145160100005  0.021511182305400001        2.07909185633e-13                6e-10                     
                     -2.8853880318600002e-16                          18781                                      3010.13584829                      -7.2920832515599999e-09               -5.9561897248899997e-22                   37.845270569199997                     37.845270561500001                     -0.000751252517677                      -0.00012508121143299999                   3.7201333308899998e-16                     124.65902787100001                             163.82111589600001                               174.881304586                       2.5312754426899999e-17  -6.85864890702e-16      3000                          230                         12                   -0.0110741407425     -0.090081220897800005  0.0221834307502            8.1217333581800001e-14              6.5000000000000003e-10       
                     -2.8880365834500001e-16                          20246                                      3525.9148038600001                 -4.7168524227999997e-09               -9.2145424435000008e-22                   37.845270569199997                     37.845270561500001                     -0.000751252517677                      -0.00012508121143299999                   3.7178401123199998e-16                     141.339541328                                  142.874027719                                    174.881304586                       2.5161929945700001e-17  -6.8574959952299999e-16    3230                          229                         13                   -0.0030050076984199999 -0.090446971320500003  0.023409089042600001        2.06697478372e-13                6.9999999999999996e-10       
                     -2.8904672632200001e-16                          21711                                      2702.65039686                      -6.09756113521e-09                 -4.6362280575299996e-22                   37.845270569199997                     37.845270561500001                     -0.000751252517677                      -0.00012508121143299999                   3.7127503353400002e-16                     123.589129966                                  153.18939028200001                               174.881304586                       2.49879614089e-17    -6.8530972126500003e-16    3461                          230                         14                    0.0035460183211900001 -0.092377881452000002  0.0244071919024            7.56970641325e-14                7.5e-10                   
                     -2.89339606775e-16                            23176                                      2401.6737698299999                 -5.2871784449300002e-09               -1.0702154227300001e-21                   37.845270569199997                     37.845270561500001                     -0.000751252517677                      -0.00012508121143299999                   3.7110631875200001e-16                     115.00817116499999                             128.56606787699999                               174.881304586                       2.4876951704699999e-17  -6.8532287723200002e-16    3691                          229                         15                    0.0052095615412000003 -0.094442457817299999  0.023149175495999999        2.0843614783399999e-13              8.0000000000000003e-10       
                     -2.8952881581500002e-16                          24647                                      2300.4320024100002                 -3.0570845934899998e-09               -2.31314221374e-22                     37.845270569199997                     37.845270561500001                     -0.000751252517677                      -0.00012508121143299999                   3.7119569715900002e-16                     128.79701319                                   131.11582536                                     174.881304586                       2.47875625167e-17    -6.8551207549100004e-16    3922                          230                         16                    0.0048131176415100001 -0.093790481576899995  0.020959895372599999        7.5259939099899999e-14              8.4999999999999996e-10       
                     -2.8965370561099999e-16                          26118                                      1509.24013584                      -1.73488525695e-09                 -1.1581454260399999e-22                   37.845270569199997                     37.845270561500001                     -0.000751252517677                      -0.00012508121143299999                   3.71262921453e-16                       113.14956295899999                             130.48540693999999                               174.881304586                       2.46828404836e-17    -6.8559946754799995e-16    4153                          230                         17                    0.0042630330388700004 -0.091653097869100003  0.020308740456999999        6.6433261666300004e-14              8.9999999999999999e-10       
                     -2.8970467852700002e-16                          27583                                      2307.4630603599999                 -5.8858025460299999e-10               -1.01877692434e-22                     37.845270569199997                     37.845270561500001                     -0.000751252517677                      -0.00012508121143299999                   3.7109684433799999e-16                     131.97150102800001                             131.97150102800001                               174.881304586                       2.4663805265200001e-17  -6.85465328131e-16      4383                          229                         18                    0.0038366879690599999 -0.090404463566400001  0.020062880068499999        1.6176871080299999e-13              9.5000000000000003e-10       
                     -2.8971960419399998e-16                          29048                                      1221.83044148                      -1.41862777866e-11                 -1.4596742017599999e-24                   37.845270569199997                     37.845270561500001                     -0.000751252517677                      -0.00012508121143299999                   3.7092118994600001e-16                     127.70392259800001                             138.759051317                                    174.881304586                       2.4681459068999999e-17  -6.8532225320900003e-16    4614                          230                         19                    0.0050803653767900001 -0.089071300408100004  0.020050100126799999        5.5805814914499999e-14              1.0000000000000001e-09       
                     -2.89718364099e-16                            30519                                      982.23697919100005                  8.4016780543099997e-11                6.1295859066000002e-24                   37.845270569199997                     37.845270561500001                     -0.000751252517677                      -0.00012508121143299999                   3.7077376614500002e-16                     128.25359353900001                             152.86105068099999                               174.881304586                       2.4710535690100001e-17  -6.8520266593399996e-16    4845                          230                         20                    0.0069104264402899997 -0.088482024960000003  0.0201189495749            7.6185376859900002e-14              1.0500000000000001e-09       
                     -2.8974063599099999e-16                          31984                                      1129.1463642799999                 -7.4911827525200002e-10               -1.4799702403e-22                      37.845270569199997                     37.845270561500001                     -0.000751252517677                      -0.00012508121143299999                   3.70680138155e-16                       127.334594068                                  146.827885111                                    174.881304586                       2.47074624033e-17    -6.8512823654799997e-16    5075                          229                         21                    0.0092464235681999993 -0.086727324314699997  0.0202942165533            2.0316641552500001e-13              1.0999999999999999e-09       
                     -2.8979912783200001e-16                          33443                                      1339.3501515400001                 -1.6648274165600001e-09               -3.4629404152099998e-22                   37.845270569199997                     37.845270561500001                     -0.000751252517677                      -0.00012508121143299999                   3.7062835996400001e-16                     118.454501048                                  141.04721370799999                               174.881304586                       2.4675304358900001e-17  -6.8510279215499999e-16    5305                          229                         22                    0.0134801245078     -0.084528333947299999  0.020535290265700001        2.17751174396e-13                1.15e-09                  
                     -2.8988287595000001e-16                          34914                                      1379.5701573900001                 -1.69508709002e-09                 -1.28794827338e-22                     37.845270569199997                     37.845270561500001                     -0.000751252517677                      -0.00012508121143299999                   3.7051617510099998e-16                     119.08813885799999                             123.301406066                                    174.881304586                       2.4633550266800001e-17  -6.8503260131800004e-16    5536                          230                         23                    0.017801317161400002 -0.082924576057999994  0.020554421792499999        7.5658734182800002e-14              1.2e-09                   
                     -2.8995989520000001e-16                          36385                                      1112.89207388                      -1.2348484047199999e-09               -7.6233265697600003e-23                   37.845270569199997                     37.845270561500001                     -0.000751252517677                      -0.00012508121143299999                   3.7032934975199999e-16                     125.361921921                                  132.946729836                                    174.881304586                       2.4595058892600001e-17  -6.8488430384499997e-16    5767                          230                         24                    0.020772318409300002 -0.081138031325799997  0.020267375998499999        6.1539587836199994e-14              1.25e-09                  
                     -2.89997763471e-16                            37850                                      1502.6894122000001                 -6.2376172644299999e-10               -1.0747048165000001e-22                   37.845270569199997                     37.845270561500001                     -0.000751252517677                      -0.00012508121143299999                   3.7014706362200002e-16                     148.285919562                                  148.302556087                                    174.881304586                       2.4576978288000001e-17  -6.8472180538099998e-16    5997                          229                         25                    0.022383542449499999 -0.078359611475400007  0.019916465124499998        1.6946338611900001e-13              1.3000000000000001e-09       
                     -2.9001515109999998e-16                          39315                                      764.25175554800001                 -1.47214260543e-10                 -9.6683373455299995e-24                   37.845270569199997                     37.845270561500001                     -0.000751252517677                      -0.00012508121143299999                   3.7005035817499998e-16                     132.27153029499999                             148.285919562                                    174.881304586                       2.4571139203499999e-17  -6.8463664847899998e-16    6228                          230                         26                    0.022500784550899999 -0.076296590146400001  0.0197471886289            6.3494020646899994e-14              1.3500000000000001e-09       
                     -2.9001675740899998e-16                          40786                                      742.97139896399995                  2.27615791809e-10                  1.48386772879e-23                     37.845270569199997                     37.845270561500001                     -0.000751252517677                      -0.00012508121143299999                   3.7007268608099999e-16                     128.88700081799999                             132.47723462600001                               174.881304586                       2.4577382908e-17     -6.8466682639700001e-16    6459                          230                         27                    0.021841862597600001 -0.075236507552700005  0.0197798650565            6.5943081772499995e-14              1.3999999999999999e-09       
                     -2.89996684428e-16                            42251                                      995.76461568900004                  4.0071398305200002e-10                8.0915450795499997e-23                   37.845270569199997                     37.845270561500001                     -0.000751252517677                      -0.00012508121143299999                   3.7017897822000002e-16                     119.575637206                                  131.752034079                                    174.881304586                       2.4597741106299999e-17  -6.8477340375399998e-16    6689                          229                         28                    0.0196239065661     -0.073561544179100005  0.0199434364535            1.9628309358300001e-13              1.45e-09                  
                     -2.8996378613700001e-16                          43716                                      706.890412685                       8.7146416781700003e-10                7.1399698234100005e-23                   37.845270569199997                     37.845270561500001                     -0.000751252517677                      -0.00012508121143299999                   3.7029378279399999e-16                     129.13468242299999                             129.13468242299999                               174.881304586                       2.4635566003299999e-17  -6.8489313493500003e-16    6920                          230                         29                    0.016579559991100001 -0.071726314302999999  0.020154738367500001        8.2141713070100002e-14              1.5e-09                   
                     -2.8991810296599999e-16                          45181                                      752.073667215                       9.0290409133900004e-10                1.8414264081599999e-22                   37.845270569199997                     37.845270561500001                     -0.000751252517677                      -0.00012508121143299999                   3.7040085235800002e-16                     124.097516115                                  134.31957048000001                               174.881304586                       2.4677800139e-17     -6.8499675546399998e-16    7150                          229                         30                    0.0135554539584     -0.068966809361100001  0.0202700840221            2.01420362315e-13                1.55e-09                  
                     -2.89869799297e-16                            46652                                      576.47703925999997                  9.2718604283300004e-10                8.0771750856300005e-23                   37.845270569199997                     37.845270561500001                     -0.000751252517677                      -0.00012508121143299999                   3.7047710663400002e-16                     122.93488066499999                             124.097516115                                    174.881304586                       2.47201010174e-17    -6.8506700694799996e-16    7381                          230                         31                    0.0104752079744     -0.067431840590799999  0.020361542702799999        8.72380005248e-14                1.6000000000000001e-09       
                     -2.8983015159699998e-16                          48123                                      546.42256691299997                  6.8416547087300002e-10                3.9055294534199997e-23                   37.845270569199997                     37.845270561500001                     -0.000751252517677                      -0.00012508121143299999                   3.7053078500600001e-16                     126.57481669400001                             126.57481669400001                               174.881304586                       2.4752481556399999e-17  -6.8511341815999996e-16    7612                          230                         32                    0.0074184764837399997 -0.065256994030699997  0.020430586964700001        5.7144575456999996e-14              1.6500000000000001e-09       
                     -2.8980061401099999e-16                          49588                                      513.21654153099996                  4.5559773600399998e-10                9.1862895765700001e-23                   37.845270569199997                     37.845270561500001                     -0.000751252517677                      -0.00012508121143299999                   3.70597783457e-16                       126.12766006699999                             126.604888086                                    174.881304586                       2.4771068805299999e-17  -6.8516946627299998e-16    7842                          229                         33                    0.0040090781406600003 -0.063082273367200001  0.020511861425999998        1.98315740354e-13                1.6999999999999999e-09       